     216
 i =        0, time =        0.000, E =        -0.4370097132
 Ar         2.5955085636        1.7517701055        8.1060220727
 Ar         4.5256285896       11.6149728854        8.0559420819
 Ar        14.3774248319        0.7623438040       -8.4030182376
 Ar         7.3568246526        2.1660142265        1.6972301793
 Ar        17.1015118361       -0.0333776779       -5.1924170867
 Ar        25.1888440562        0.4515329810       -3.7356264665
 Ar        -4.9508903282       -0.4284643846        6.2628203338
 Ar         3.1671660871       14.4810948336        2.7167921630
 Ar         1.6227497063       -4.8564842109        0.3521803235
 Ar        14.3264251818        1.7710456581        4.0076918458
 Ar        24.5456852710        5.5729933948        4.2056565908
 Ar        21.5580429809       11.2779941680      -10.1333474575
 Ar         1.2017821171        8.3808610166        7.0519107604
 Ar         2.7878258355        3.7502299536       -3.6003110452
 Ar         0.0146015110       -0.0271596921        1.5624129943
 Ar        18.1308311440        6.8319546007        4.1486065318
 Ar        18.9160296136       -2.0995153021        8.6434079296
 Ar        19.1917454042       21.2582705760       -1.9121968950
 Ar         3.1547318576       12.7347030000       -0.1607888565
 Ar         5.3850063700       16.4819282533        0.7872402190
 Ar        14.3589920583       14.9465087009        6.7234551244
 Ar         6.1528482583        5.5296369427        2.4945137282
 Ar        14.2028111886       20.1486833884        4.1297836665
 Ar        13.1764167697       13.8308312197        1.4457519322
 Ar         4.1612463857       17.7229687918       -2.6182485437
 Ar         8.4717716244       14.2878974072       -7.8628874097
 Ar         5.2933127011       21.0401390808        6.6119911678
 Ar        13.1497314443       18.0010105004        1.4565945758
 Ar         3.0830998204       10.6182296406        3.7172442584
 Ar        20.7030200545       17.0591351470        7.1288147876
 Ar        -9.5145298596       18.5866345475        6.7572838230
 Ar        10.8057657258       17.2636940299       -1.2433296373
 Ar         5.5267000543       12.6774982313        4.7219838382
 Ar        18.1291627225       11.9881287181       -4.1305594467
 Ar        21.1468821799       13.9124505681       -7.3251184046
 Ar        17.3270751725       19.8974812004        2.7338165498
 Ar       -10.3027196314        8.5340393463        3.6621628144
 Ar         6.5865839323        0.8799038253        9.3498456937
 Ar        -0.8055872557       -3.4872914405        3.7989168628
 Ar         9.7727608378       -3.4782582022        2.2518088045
 Ar         9.4109524541       -3.5296506689       14.0501908291
 Ar        18.8337720100       -6.5351340235       -1.8960812671
 Ar        -1.8362494994       -0.1097497280        4.9694907469
 Ar        -0.9265735641        3.9619506293        3.3834461083
 Ar         4.6470061215        3.3093989349       11.7886304267
 Ar         6.5380210044        8.0356948459       -4.1679780351
 Ar        15.0267267521        5.1187857869       -1.5094230180
 Ar        18.7791103068        1.3661440461        1.1720592107
 Ar        -2.0197830135        8.6932823961        1.0582170667
 Ar        -5.6111558119       11.6943188216        7.2349886924
 Ar         8.2288274145        1.0196122436        5.8741598298
 Ar        13.0678528738        3.3414774032       -6.2457488178
 Ar        15.3037623784        8.1727544635        5.8241776679
 Ar        13.2714847493        8.7727375986       -2.3126885072
 Ar        -1.9532672176        4.5433310063        0.1999927793
 Ar         4.8633194881        2.4827030452       -1.1201000999
 Ar         9.6344195524        8.6024679059       -2.3888519415
 Ar        12.3106404167       14.2930648672       -6.5244121326
 Ar        25.8643513719        6.3264366998       -1.3429259054
 Ar        12.4873341170       11.3511354637        7.6234544426
 Ar         7.8770339931       13.8899101721        1.5054492429
 Ar         9.2924005191       16.9942055500       -4.4855987870
 Ar        14.5559141031       15.8186265139       -0.8770733260
 Ar         6.5022835228       20.9818208332        3.4474998782
 Ar         5.5777835436       15.9353458898        7.7578459102
 Ar         7.6924717057        5.1935396969       12.7434549513
 Ar         0.7840828122       20.3468253382       -1.7104570333
 Ar         0.9265939322       19.9587798947        6.9137382095
 Ar         2.6502388170       17.0877459311        9.1341190036
 Ar         5.8574400196       18.9020675063       12.9955020286
 Ar        17.5338351245       17.8921989052        5.9403053278
 Ar        15.3075919105       22.7365547613        0.2421190182
 Ar        -5.2932428999        4.1007348899        1.6573346976
 Ar         1.8055940076        5.0201630103        0.9277668488
 Ar        -1.6941060205        1.3880124224        8.0594423008
 Ar         9.4591999661       -0.5621746670       11.2404760587
 Ar         7.3067863254        5.2597525113        7.5891111827
 Ar        16.8410198665       -4.3697049073       10.7937122003
 Ar        -1.6207751004       12.7009563371        8.5426120200
 Ar         3.3595386775        5.5534395190        7.7897314571
 Ar         1.8022229801        1.1509099670        4.4388492740
 Ar        12.7224672488        5.7754487119        1.3709295860
 Ar        18.8772540564        3.8615972511       10.0555565258
 Ar         8.2407675434       -6.9242788743        5.4739833393
 Ar         0.7154258470       12.7582695760       -3.0748207810
 Ar        -3.6352904298        6.1324353355        7.4714303906
 Ar        10.7384116567        3.0256331102        2.8971469878
 Ar         5.3325834047        2.9498755457        4.8942754015
 Ar         9.4656603787        6.4392867887        1.1662747161
 Ar        20.4406482077       11.8289693209       -0.3562191620
 Ar         0.4712037871       12.3260978469        2.3809829180
 Ar         0.1756744396       11.4317657811        5.6625686351
 Ar        12.2266940507        5.9763126771       11.0749142278
 Ar         5.4131483058        7.8182023184        5.5235418652
 Ar        15.9991339453       18.8461980308       17.8672939951
 Ar         7.1251384093       11.7415695543       -5.7148186461
 Ar        -4.8713155066       22.7732243106       10.6069899683
 Ar        -2.6520215206        9.5368149594        7.3693719798
 Ar        -0.7580502763       15.7564435209       11.5419984593
 Ar        20.2962093621       15.3940527884        1.6107923813
 Ar        10.8025820975       22.1573963379       14.8507332373
 Ar        21.6574249490        7.6331856331        3.7157183423
 Ar        -0.0443624584       19.1240698368       10.5933758437
 Ar        -0.1789822671       26.4190180236        6.9577904584
 Ar        11.6261086470       15.7676331611        4.0174672244
 Ar         7.2586702840       20.5873019953       16.3718830770
 Ar         9.7099697100       16.9833811790       10.6259291437
 Ar        19.3165495168       14.3136420493        5.1845334541
 Ar        12.7535659811        1.6458135539       10.4362920654
 Ar         3.0930916112       -1.4968946243       11.1044935602
 Ar        12.4396032335       -2.3110886306       12.3799197728
 Ar         9.2935289369       -0.3291404671       22.2603928965
 Ar        14.4441553472        1.5216746015       18.4455575692
 Ar         5.4892775762       -4.8384875350        4.1573354549
 Ar        -4.0829863446        3.1122967345        4.9316358612
 Ar         6.7752035758        0.6236833810       13.0680077888
 Ar         1.0436357680        4.8640673677       10.7867264888
 Ar         9.4272508226        3.3896771329        9.5136030015
 Ar        17.2775512540       -1.9660192213       13.4026572964
 Ar        11.9449816560        0.6917485068        7.0316946355
 Ar        -3.1487677088        5.3973020741       13.3269057851
 Ar        16.6327491416        3.5742667058       16.0035371122
 Ar         8.8533440464       -3.2969809273        5.9050906534
 Ar         8.9625570546        5.8520691171        4.5606318894
 Ar        20.5788766446        4.9829818993       16.6021173786
 Ar        11.8415102555        4.3315810441        6.8347747947
 Ar        -4.2497161083       10.2937128813       11.0169890374
 Ar         9.4505812386       13.3479190710       18.6315814361
 Ar         6.0264960974       15.6914940425       11.6118535947
 Ar        16.6881261640       15.8590758550        2.6428577212
 Ar        11.3982487652        7.9832306505        8.3233608742
 Ar        14.5540823125       13.1789350400       11.2108623176
 Ar        -4.2860872376       15.1374497894        7.9212850978
 Ar         2.4873371213       13.4179685483       10.6246815838
 Ar         2.4564567860       14.2701501829        6.5963726358
 Ar         9.4694734016       11.3869063270        9.9176763019
 Ar        13.3026012195       17.1089607914       10.1907836959
 Ar        18.1840158853       16.2774389702       14.5639239543
 Ar         2.7936809155       16.5904678020       13.1550400653
 Ar         6.1758372977       15.4728207942       16.4973170842
 Ar        -1.6573307538       29.4454730359       11.0276680642
 Ar         8.6974747876       10.2064458953        6.4561985977
 Ar        22.3022293443       23.2164533702       11.2355743936
 Ar        14.8510078662       20.0086269244        9.2159851145
 Ar         2.2202155688        7.4258806010       16.7595583443
 Ar         4.0123749132        6.6666820632       11.8775033033
 Ar         0.5173540387        5.7448781277       19.7761427627
 Ar        12.3318594883        2.5091548482       21.6587939890
 Ar        21.6710205187        1.8574273631       19.2005505985
 Ar        14.9588364771        3.8669296831       12.0969161996
 Ar         1.7459128501        4.4979154729       14.2616459096
 Ar         7.9853236011        4.8293243827       19.5226824424
 Ar        10.7531180472        3.3303818935       12.7466264354
 Ar        11.6865989559        5.6127315657       19.5275994546
 Ar        20.1201825278       -3.3960491244       18.2522404469
 Ar        16.4195470194        6.7225149476       10.2923889519
 Ar        -7.5361031115       10.4907712156       22.7807978585
 Ar         4.9863477568        9.2926584507       22.1414756534
 Ar        10.6637199674       14.2639336413        7.8947809490
 Ar        11.8102921005        7.4989533731       15.9862959061
 Ar        15.1574803661        3.8106452349        8.1396652362
 Ar        26.5292911455        9.4133665080       14.2505739547
 Ar        14.1203850651        9.2328503670       10.2455102186
 Ar        -0.2272707995        7.4406188229       14.0393431888
 Ar         9.2036270418        4.3120925284       16.0566568381
 Ar        14.3157438681       11.5506701301       26.2858958156
 Ar        14.6546019768        7.9537665844       13.4982094180
 Ar        15.5399248890        9.3960559258       16.5700003494
 Ar         6.6897900627       11.2071301179       19.7497388057
 Ar         3.2470386750       10.1459913624       11.0477445377
 Ar         5.1324559262        5.0548764949       15.2420378677
 Ar        10.2659124730       11.9021309107        3.6242899260
 Ar        16.4874179506       13.0483824873       14.6305505808
 Ar        21.4030828199       17.9686222449       14.2707836745
 Ar         6.6827799604       14.9262176861       19.8977938681
 Ar         6.3694611864       12.2734288858       12.0414092940
 Ar         6.7577699302       19.0394564059        9.2057164616
 Ar        16.7363115493       18.5817488361       21.3753894413
 Ar        25.0720462262       22.8096576886       14.4886967167
 Ar        18.9325452534       23.4884149335       13.3107819356
 Ar        14.4264242309       -5.1411614745       13.8437760626
 Ar        -3.5202548179      -10.4902123567       24.8663544897
 Ar         6.5244154886        9.1001698448       10.2408679360
 Ar        13.7302163510       -1.6572264578       15.7719450072
 Ar        20.8182472988       -0.5683872674       15.2421115186
 Ar        18.9668747219        9.8244516228       14.6065110727
 Ar        -7.2472479255        4.9356672079       26.5524909704
 Ar         3.9649159558       -1.1574596886       21.8489297526
 Ar         6.3660792975        2.2152508684       17.2919907168
 Ar        10.6946592489       10.6007661355       16.6295183424
 Ar        24.0236983947       -6.2261560264       16.8858911132
 Ar        24.7557044743       -2.2625363591       24.9993326735
 Ar        -0.7088103885        9.3208954021       18.1518420663
 Ar         1.7132483691        8.8744870168       22.7546110764
 Ar        12.9989215838       10.8224974928       14.0740205856
 Ar        12.8872112439       -1.5536801860       20.5820004739
 Ar        13.1716250717       12.2023487098       18.6713993705
 Ar        17.0836151645        9.7083164820       20.7117474240
 Ar         3.3005809791       13.3247367719       14.0013193472
 Ar         3.2671386349       -2.5587821742       15.6580344539
 Ar         0.6530543252       10.5795322914       14.9543668736
 Ar         8.2662435004        8.4687762648       14.8179666196
 Ar         7.7402474735        9.6307551014       24.5052478411
 Ar        18.1671161689       13.6454329695       11.5948129496
 Ar        -4.2534643117        6.9620152772       18.3588211397
 Ar         3.8378622146       11.6891120157       17.7184921427
 Ar        12.9115673019       17.1116216256       17.6981563454
 Ar        11.2943952011       14.1663235924       11.8924481442
 Ar        17.0582446262       13.0015062389       21.7787364406
 Ar        20.0870194439       18.7630327538       22.1784158516
 Ar        10.0774595204       23.8679180236       18.6592074956
 Ar        -3.8116193591       25.2081816117       19.1059532947
 Ar        16.2518590802       15.1851791407       17.5833240593
 Ar         7.3647879517       19.0402959206       20.6333939901
 Ar        10.6991820581       11.0743386453        0.2969919672
 Ar        32.5030249763       20.0375175565       18.0644695618
     216
 i =        2, time =        2.000, E =        -0.4370364836
 Ar         2.5929178885        1.7510739989        8.1076881111
 Ar         4.5245647344       11.6136920626        8.0549313579
 Ar        14.3756345721        0.7596160411       -8.3972523620
 Ar         7.3527927551        2.1681426376        1.7026145886
 Ar        17.0995191488       -0.0324898764       -5.1905385579
 Ar        25.1869347818        0.4554192984       -3.7354818039
 Ar        -4.9527983477       -0.4259458839        6.2586988459
 Ar         3.1639843960       14.4790724390        2.7137125786
 Ar         1.6255286537       -4.8590251792        0.3517276220
 Ar        14.3322076918        1.7692395804        4.0065923991
 Ar        24.5504341902        5.5711752014        4.2078672116
 Ar        21.5571843856       11.2815927580      -10.1332106974
 Ar         1.2029180273        8.3775501560        7.0500314503
 Ar         2.7872595325        3.7529171155       -3.6006130829
 Ar         0.0197655822       -0.0269726915        1.5680528701
 Ar        18.1326137280        6.8328807793        4.1484389380
 Ar        18.9119870938       -2.0962688743        8.6426170101
 Ar        19.1929539327       21.2594520443       -1.9104573223
 Ar         3.1548883868       12.7341734694       -0.1625922034
 Ar         5.3876124571       16.4834065965        0.7890085478
 Ar        14.3587095510       14.9524357695        6.7203503517
 Ar         6.1529611163        5.5285203675        2.4987645179
 Ar        14.2029457581       20.1471417783        4.1220302763
 Ar        13.1757587518       13.8313272043        1.4428747619
 Ar         4.1635875466       17.7212523474       -2.6139453998
 Ar         8.4747014035       14.2916693029       -7.8612782982
 Ar         5.2890489468       21.0415535888        6.6130913288
 Ar        13.1500040673       18.0011530350        1.4519777138
 Ar         3.0825424770       10.6199661090        3.7137377948
 Ar        20.7032347997       17.0580829720        7.1286826821
 Ar        -9.5108368715       18.5892992281        6.7554558835
 Ar        10.8075154855       17.2666025040       -1.2374096855
 Ar         5.5300098110       12.6809780337        4.7230670108
 Ar        18.1265935281       11.9861166489       -4.1250929231
 Ar        21.1489583286       13.9106083554       -7.3285262538
 Ar        17.3240845682       19.8979976540        2.7290426475
 Ar       -10.3003067825        8.5327882318        3.6609353594
 Ar         6.5916914606        0.8814669741        9.3500251637
 Ar        -0.8063707542       -3.4873692857        3.7948020809
 Ar         9.7726418304       -3.4778261689        2.2524312240
 Ar         9.4113779208       -3.5341277463       14.0488325758
 Ar        18.8308300392       -6.5366512260       -1.8975506706
 Ar        -1.8374874070       -0.1108694305        4.9703046749
 Ar        -0.9282822231        3.9617088928        3.3788841448
 Ar         4.6423771358        3.3091827097       11.7879558631
 Ar         6.5365762671        8.0329503133       -4.1661283197
 Ar        15.0275176676        5.1130157028       -1.5079763960
 Ar        18.7832901027        1.3661416765        1.1678046358
 Ar        -2.0204731553        8.6922177208        1.0601065634
 Ar        -5.6124878254       11.6952568622        7.2367433261
 Ar         8.2287456692        1.0195117405        5.8774886265
 Ar        13.0650045300        3.3447542609       -6.2441423460
 Ar        15.3097284248        8.1756497287        5.8244834816
 Ar        13.2718644027        8.7733852263       -2.3169946384
 Ar        -1.9540337675        4.5385648772        0.1976980305
 Ar         4.8607059290        2.4821219410       -1.1164724820
 Ar         9.6338625812        8.6009492608       -2.3836574107
 Ar        12.3093528215       14.2968567234       -6.5236700481
 Ar        25.8640704578        6.3303717444       -1.3419627510
 Ar        12.4860973237       11.3500833029        7.6221417071
 Ar         7.8790347221       13.8929791769        1.5069286089
 Ar         9.2893347978       16.9945620010       -4.4860390038
 Ar        14.5564716795       15.8175743032       -0.8741801404
 Ar         6.5000361735       20.9840428123        3.4448831465
 Ar         5.5804466177       15.9314603479        7.7582479688
 Ar         7.6901254758        5.1973058266       12.7414272511
 Ar         0.7862837355       20.3503650629       -1.7068767336
 Ar         0.9286673395       19.9633434096        6.9152799661
 Ar         2.6509196601       17.0882659186        9.1370460662
 Ar         5.8583179067       18.8954754792       12.9976582148
 Ar        17.5365091871       17.8985420233        5.9401082260
 Ar        15.3050200445       22.7350674016        0.2439488965
 Ar        -5.2982123637        4.1026103334        1.6555635262
 Ar         1.8096244721        5.0178654574        0.9254569885
 Ar        -1.6957862231        1.3866718672        8.0572853011
 Ar         9.4540452736       -0.5632403336       11.2377783088
 Ar         7.3026021032        5.2649526682        7.5874773105
 Ar        16.8412965024       -4.3738566260       10.7948517730
 Ar        -1.6216196405       12.6976357694        8.5432113438
 Ar         3.3653570727        5.5518673216        7.7883725088
 Ar         1.8046758510        1.1563817283        4.4334361704
 Ar        12.7237009094        5.7726242509        1.3705803334
 Ar        18.8723348230        3.8614894861       10.0538956516
 Ar         8.2440934649       -6.9218853626        5.4711219956
 Ar         0.7142919327       12.7567715898       -3.0758791941
 Ar        -3.6338827976        6.1351394546        7.4711400960
 Ar        10.7428904322        3.0251707843        2.8996099503
 Ar         5.3303586912        2.9515649408        4.8991207900
 Ar         9.4687943965        6.4363180877        1.1655498377
 Ar        20.4422911300       11.8282216698       -0.3580786875
 Ar         0.4711227339       12.3231061283        2.3823861046
 Ar         0.1761317128       11.4319575790        5.6616154409
 Ar        12.2268066737        5.9707612568       11.0740152524
 Ar         5.4150390132        7.8155139574        5.5206401386
 Ar        15.9997922217       18.8498968386       17.8684312573
 Ar         7.1258225615       11.7409311909       -5.7125338524
 Ar        -4.8699475677       22.7690264655       10.6081442887
 Ar        -2.6499893568        9.5343045290        7.3692315732
 Ar        -0.7563116087       15.7564077074       11.5420030006
 Ar        20.2935798046       15.3945586553        1.6077396863
 Ar        10.8001899610       22.1561570333       14.8538746569
 Ar        21.6552234549        7.6320938946        3.7165424282
 Ar        -0.0474673041       19.1229964715       10.5945730637
 Ar        -0.1799923086       26.4187356418        6.9656654190
 Ar        11.6288057512       15.7677211527        4.0127515010
 Ar         7.2601507603       20.5914151397       16.3747408212
 Ar         9.7041632117       16.9872956352       10.6214607746
 Ar        19.3194454673       14.3131475909        5.1840827984
 Ar        12.7537021976        1.6480160726       10.4397233898
 Ar         3.0918482301       -1.4937025641       11.1076020565
 Ar        12.4358830050       -2.3124807533       12.3840035252
 Ar         9.2974519260       -0.3269874286       22.2526937459
 Ar        14.4422627833        1.5215948022       18.4467352098
 Ar         5.4886708001       -4.8357514843        4.1510800243
 Ar        -4.0798539464        3.1061608133        4.9340053088
 Ar         6.7746920581        0.6196497889       13.0680930867
 Ar         1.0407486487        4.8630877390       10.7887978367
 Ar         9.4296709680        3.3903481967        9.5135433818
 Ar        17.2795158986       -1.9708007054       13.4067386906
 Ar        11.9424747433        0.6926165530        7.0329020817
 Ar        -3.1502086904        5.3990466082       13.3266752870
 Ar        16.6299877903        3.5754838150       16.0039191191
 Ar         8.8506174834       -3.2975261743        5.9064440327
 Ar         8.9677188765        5.8500980854        4.5583736314
 Ar        20.5796540949        4.9812424209       16.6054929846
 Ar        11.8401795196        4.3348948130        6.8321062128
 Ar        -4.2537171480       10.2905356865       11.0183818937
 Ar         9.4497744019       13.3484812477       18.6347199564
 Ar         6.0223862245       15.6885060503       11.6105417281
 Ar        16.6849106883       15.8610051944        2.6398526655
 Ar        11.4023227360        7.9836508536        8.3230915461
 Ar        14.5531287970       13.1788313727       11.2164752666
 Ar        -4.2830781601       15.1344050717        7.9204803871
 Ar         2.4902640467       13.4206928215       10.6240335595
 Ar         2.4570598540       14.2696035880        6.5936392283
 Ar         9.4679982868       11.3895544523        9.9171673292
 Ar        13.3044370400       17.1087667598       10.1923784239
 Ar        18.1884004164       16.2778495750       14.5636488898
 Ar         2.7944178312       16.5912510825       13.1597562392
 Ar         6.1777879301       15.4752066240       16.4990744328
 Ar        -1.6567086104       29.4513932356       11.0269790847
 Ar         8.6987482550       10.2050900940        6.4610510810
 Ar        22.3037684189       23.2165323848       11.2376642363
 Ar        14.8505644909       20.0055067332        9.2116976366
 Ar         2.2187760482        7.4239205138       16.7571880107
 Ar         4.0126506496        6.6656407324       11.8776512328
 Ar         0.5177753671        5.7458797771       19.7716414951
 Ar        12.3297257156        2.5071131553       21.6604919908
 Ar        21.6698958899        1.8602159125       19.2009200636
 Ar        14.9571189766        3.8664600888       12.0996528230
 Ar         1.7504291197        4.4920159955       14.2646710407
 Ar         7.9872804166        4.8298969075       19.5213516494
 Ar        10.7503904003        3.3295935149       12.7434055471
 Ar        11.6826571268        5.6112332676       19.5261220433
 Ar        20.1168365448       -3.3912672269       18.2508696139
 Ar        16.4137947451        6.7262263839       10.2925205737
 Ar        -7.5321180665       10.4885005036       22.7789085001
 Ar         4.9826336421        9.2925716958       22.1416865573
 Ar        10.6566054574       14.2630984731        7.8963594616
 Ar        11.8074680052        7.4993609807       15.9930474625
 Ar        15.1576979250        3.8130560921        8.1380022262
 Ar        26.5318586380        9.4165350529       14.2506796733
 Ar        14.1225541346        9.2305938212       10.2425347707
 Ar        -0.2245055993        7.4421160362       14.0356794259
 Ar         9.2031722955        4.3090719829       16.0532142976
 Ar        14.3127154127       11.5466432110       26.2891989192
 Ar        14.6546307375        7.9535474563       13.4986201094
 Ar        15.5396165339        9.3965854118       16.5687104155
 Ar         6.6902973437       11.2038376933       19.7465809042
 Ar         3.2450332409       10.1459165254       11.0489746309
 Ar         5.1310008320        5.0517165827       15.2378971115
 Ar        10.2661334687       11.9055978009        3.6229122328
 Ar        16.4952397430       13.0480277604       14.6300147565
 Ar        21.4018047125       17.9714078589       14.2746611129
 Ar         6.6853145369       14.9232827149       19.8949108759
 Ar         6.3649686138       12.2730211060       12.0471749195
 Ar         6.7586155881       19.0431689075        9.2060944250
 Ar        16.7392928310       18.5819163953       21.3732912324
 Ar        25.0744245135       22.8067043322       14.4873538364
 Ar        18.9348409582       23.4891934989       13.3087997544
 Ar        14.4285295720       -5.1430515465       13.8471102827
 Ar        -3.5202146154      -10.4910938406       24.8673390719
 Ar         6.5248020832        9.0992155886       10.2362832081
 Ar        13.7281362024       -1.6584858702       15.7732202647
 Ar        20.8195081510       -0.5697720173       15.2396299397
 Ar        18.9703152562        9.8254704975       14.6175261013
 Ar        -7.2499511059        4.9351626201       26.5564812460
 Ar         3.9629950476       -1.1537445452       21.8523356604
 Ar         6.3678445899        2.2162260621       17.2913177599
 Ar        10.6953912433       10.6039185224       16.6333171640
 Ar        24.0276081381       -6.2296226048       16.8850278603
 Ar        24.7588446283       -2.2624740741       24.9965463738
 Ar        -0.7081794830        9.3224375479       18.1527232494
 Ar         1.7155287483        8.8678199740       22.7484402978
 Ar        12.9998103844       10.8272476857       14.0730932208
 Ar        12.8874263953       -1.5573136881       20.5871482884
 Ar        13.1731002931       12.2002773644       18.6714824064
 Ar        17.0774230370        9.7126042817       20.7137244142
 Ar         3.3005347656       13.3312949433       14.0005176367
 Ar         3.2685565936       -2.5609972828       15.6585660691
 Ar         0.6487393151       10.5762143839       14.9569304756
 Ar         8.2651812228        8.4735392311       14.8146075400
 Ar         7.7403920366        9.6228204804       24.4984860642
 Ar        18.1682227999       13.6450725241       11.5906058166
 Ar        -4.2573851446        6.9648661045       18.3590885813
 Ar         3.8326038086       11.6945434455       17.7181919820
 Ar        12.9096182531       17.1124794467       17.6980539675
 Ar        11.2981928226       14.1687043504       11.8885884058
 Ar        17.0577395825       12.9986537202       21.7839000781
 Ar        20.0883494023       18.7599349332       22.1742246314
 Ar        10.0809607522       23.8703418302       18.6580491462
 Ar        -3.8132586350       25.2038283722       19.1034157585
 Ar        16.2523691298       15.1841078561       17.5822150197
 Ar         7.3623695341       19.0417222519       20.6337090916
 Ar        10.7016741300       11.0726284933        0.2974513891
 Ar        32.5003749757       20.0401806478       18.0621298759
     216
 i =        4, time =        4.000, E =        -0.4370557849
 Ar         2.5903400989        1.7503809433        8.1093552159
 Ar         4.5235235441       11.6124097023        8.0539129597
 Ar        14.3738863595        0.7568748750       -8.3914874359
 Ar         7.3487474367        2.1703164133        1.7080137567
 Ar        17.0975873155       -0.0315536713       -5.1887017074
 Ar        25.1850281266        0.4591695189       -3.7353306485
 Ar        -4.9547824118       -0.4233955201        6.2545974580
 Ar         3.1608175228       14.4771195680        2.7107204064
 Ar         1.6282998854       -4.8615438703        0.3512693834
 Ar        14.3379544172        1.7673401826        4.0054582271
 Ar        24.5551760469        5.5693605295        4.2101175334
 Ar        21.5562926456       11.2851773217      -10.1331075356
 Ar         1.2040565322        8.3742326818        7.0481698913
 Ar         2.7867128501        3.7556606032       -3.6010047170
 Ar         0.0249557461       -0.0268160119        1.5736889721
 Ar        18.1343995593        6.8338012044        4.1481857902
 Ar        18.9079516854       -2.0930093857        8.6418569803
 Ar        19.1940716226       21.2607079929       -1.9087157445
 Ar         3.1550582253       12.7336003000       -0.1644755637
 Ar         5.3901866073       16.4849256493        0.7907514210
 Ar        14.3583658467       14.9583399823        6.7172229022
 Ar         6.1530271267        5.5274356989        2.5029794872
 Ar        14.2030338149       20.1455817053        4.1142956675
 Ar        13.1750711945       13.8317792606        1.4400503381
 Ar         4.1659126347       17.7195527511       -2.6096459917
 Ar         8.4776497181       14.2954620817       -7.8596390256