#     Step Nr.          Time[fs]        Kin.[a.u.]          Temp[K]            Pot.[a.u.]        Cons Qty[a.u.]        UsedTime[s]
         0            0.000000         0.096410526        94.400000000        -0.437009713        -0.340449713         0.000000000
         1            1.000000         0.096144125        94.139154294        -0.437024051        -0.340449153         0.047446841
         2            2.000000         0.095896115        93.896315960        -0.437036484        -0.340448573         0.003967516
         3            3.000000         0.095667420        93.672390253        -0.437047053        -0.340447981         0.006146754
         4            4.000000         0.095458878        93.468197595        -0.437055785        -0.340447368         0.003912420
         5            5.000000         0.095271255        93.284486579        -0.437062733        -0.340446737         0.006167374
         6            6.000000         0.095105220        93.121913972        -0.437067945        -0.340446090         0.003908169
         7            7.000000         0.094961332        92.981026614        -0.437071439        -0.340445431         0.006044075
         8            8.000000         0.094840090        92.862313573        -0.437073257        -0.340444759         0.003903428
         9            9.000000         0.094741913        92.766183705        -0.437073437        -0.340444066         0.006002857
        10           10.000000         0.094667131        92.692960854        -0.437072027        -0.340443364         0.003819674
