     216
 i =        0, time =        0.000, E =        -0.4370097132
 Ar        -0.0012988569       -0.0003488877        0.0008326950
 Ar        -0.0005377619       -0.0006401834       -0.0005034175
 Ar        -0.0009058146       -0.0013603936        0.0028828603
 Ar        -0.0020125160        0.0010526103        0.0026882678
 Ar        -0.0010117103        0.0004320915        0.0009495556
 Ar        -0.0009554497        0.0019776237        0.0000706568
 Ar        -0.0009353194        0.0012515387       -0.0020657219
 Ar        -0.0015946646       -0.0010286969       -0.0015614597
 Ar         0.0013916609       -0.0012763267       -0.0002249758
 Ar         0.0029009302       -0.0008795867       -0.0005410031
 Ar         0.0023763837       -0.0009101140        0.0010950138
 Ar        -0.0004209670        0.0018031955        0.0000769318
 Ar         0.0005674238       -0.0016540583       -0.0009441123
 Ar        -0.0002878523        0.0013296833       -0.0001285969
 Ar         0.0025757568        0.0001010177        0.0028206541
 Ar         0.0008906115        0.0004645058       -0.0000624532
 Ar        -0.0020233301        0.0016201940       -0.0004030625
 Ar         0.0006271572        0.0005723070        0.0008692836
 Ar         0.0000749158       -0.0002539570       -0.0008817867
 Ar         0.0013114304        0.0007288030        0.0008897530
 Ar        -0.0001257377        0.0029699149       -0.0015466251
 Ar         0.0000682755       -0.0005663124        0.0021342978
 Ar         0.0000787534       -0.0007662921       -0.0038812137
 Ar        -0.0003217692        0.0002586313       -0.0014515719
 Ar         0.0011747882       -0.0008626751        0.0021524181
 Ar         0.0014604840        0.0018809622        0.0007968284
 Ar        -0.0021135980        0.0007161096        0.0005463630
 Ar         0.0001253884        0.0000726772       -0.0023155793
 Ar        -0.0002840519        0.0008934635       -0.0017549456
 Ar         0.0000943648       -0.0005151280       -0.0000778659
 Ar         0.0018482883        0.0013402107       -0.0009186854
 Ar         0.0008818144        0.0014629492        0.0029519698
 Ar         0.0016386695        0.0017342342        0.0005375482
 Ar        -0.0012926442       -0.0010058442        0.0027268724
 Ar         0.0010407077       -0.0009216905       -0.0017113568
 Ar        -0.0015151165        0.0002552228       -0.0023884504
 Ar         0.0012065590       -0.0006252725       -0.0006150148
 Ar         0.0025595730        0.0007733679        0.0000818685
 Ar        -0.0003936899       -0.0000406724       -0.0020554647
 Ar        -0.0000452659        0.0002154253        0.0003094330
 Ar         0.0002136553       -0.0022462746       -0.0006774574
 Ar        -0.0014876195       -0.0007702021       -0.0007353355
 Ar        -0.0006353782       -0.0005586425        0.0004286251
 Ar        -0.0008642864       -0.0001154175       -0.0022950172
 Ar        -0.0023166258       -0.0000932277       -0.0003327522
 Ar        -0.0007070198       -0.0013710035        0.0009105288
 Ar         0.0003893972       -0.0028894897        0.0007241702
 Ar         0.0021049467        0.0000045626       -0.0021330285
 Ar        -0.0003377677       -0.0005242206        0.0009557839
 Ar        -0.0006782194        0.0004695429        0.0008594422
 Ar        -0.0000575146       -0.0000585331        0.0016597606
 Ar        -0.0014191485        0.0016361070        0.0008005464
 Ar         0.0029946438        0.0014390018        0.0001433507
 Ar         0.0001831208        0.0003258687       -0.0021557989
 Ar        -0.0003814210       -0.0024007626       -0.0011321517
 Ar        -0.0013171073       -0.0002910883        0.0018011283
 Ar        -0.0002746554       -0.0007618880        0.0025932628
 Ar        -0.0006407464        0.0019067064        0.0003600134
 Ar        -0.0001557695        0.0019697658        0.0004939365
 Ar        -0.0006263760       -0.0005218377       -0.0006545339
 Ar         0.0010013235        0.0015410837        0.0007379954
 Ar        -0.0015269948        0.0001946368       -0.0002190818
 Ar         0.0002699140       -0.0005291771        0.0014720525
 Ar        -0.0011281525        0.0011248445       -0.0012861830
 Ar         0.0013239064       -0.0019384433        0.0002052135
 Ar        -0.0011757984        0.0018828027       -0.0010079619
 Ar         0.0010923598        0.0017801047        0.0017941447
 Ar         0.0010344626        0.0022797011        0.0007698020
 Ar         0.0003520751        0.0002571654        0.0014568581
 Ar         0.0004368165       -0.0033094592        0.0010731894
 Ar         0.0013526722        0.0031708528       -0.0000774055
 Ar        -0.0013014772       -0.0007349487        0.0009121870
 Ar        -0.0024842992        0.0009334359       -0.0008858481
 Ar         0.0020232486       -0.0011377039       -0.0011737797
 Ar        -0.0008473816       -0.0006655316       -0.0010813288
 Ar        -0.0025924560       -0.0005307233       -0.0013426036
 Ar        -0.0020822043        0.0026009740       -0.0008162047
 Ar         0.0001308946       -0.0020702797        0.0005676437
 Ar        -0.0004256277       -0.0016727724        0.0002939501
 Ar         0.0029102533       -0.0007833893       -0.0006862828
 Ar         0.0012267844        0.0027382200       -0.0027117480
 Ar         0.0005902960       -0.0014148192       -0.0001789171
 Ar        -0.0024674849       -0.0000632622       -0.0008408238
 Ar         0.0016665783        0.0012006641       -0.0014214327
 Ar        -0.0005581258       -0.0007557665       -0.0005266406
 Ar         0.0006996573        0.0013638102       -0.0001409921
 Ar         0.0022464549       -0.0002310263        0.0012207901
 Ar        -0.0011103124        0.0008487013        0.0024173853
 Ar         0.0015917333       -0.0014949828       -0.0003451803
 Ar         0.0008333417       -0.0003774009       -0.0009114865
 Ar        -0.0000280330       -0.0015059903        0.0007059415
 Ar         0.0002369981        0.0000932233       -0.0004864973
 Ar         0.0000513602       -0.0027869175       -0.0004480132
 Ar         0.0009459389       -0.0013514851       -0.0014500551
 Ar         0.0003154878        0.0018718962        0.0005532025
 Ar         0.0003445147       -0.0003182683        0.0011435819
 Ar         0.0006988875       -0.0020940936        0.0005914771
 Ar         0.0010172639       -0.0012537517       -0.0000679737
 Ar         0.0008688342       -0.0000131343        0.0000182497
 Ar        -0.0013162452        0.0002608616       -0.0015277825
 Ar        -0.0011931159       -0.0006204157        0.0015707358
 Ar        -0.0011096468       -0.0005459570        0.0003961099
 Ar        -0.0015452544       -0.0005386845        0.0005980385
 Ar        -0.0005071411       -0.0001439376        0.0039361827
 Ar         0.0013530086        0.0000450888       -0.0023667475
 Ar         0.0007422384        0.0020652159        0.0014288508
 Ar        -0.0028993273        0.0019524269       -0.0022279033
 Ar         0.0014408660       -0.0002398888       -0.0002044203
 Ar         0.0000687499        0.0011115625        0.0017297567
 Ar        -0.0006384525        0.0015908403        0.0015526869
 Ar        -0.0018639189       -0.0007117495        0.0020339983
 Ar         0.0019500434        0.0010822747       -0.0038445670
 Ar        -0.0009430860       -0.0000402464        0.0005830051
 Ar        -0.0003061199        0.0013656939       -0.0031443532
 Ar         0.0015675029       -0.0030701468        0.0011770050
 Ar        -0.0002505690       -0.0020272357        0.0000312581
 Ar        -0.0014417595       -0.0004951810        0.0010454578
 Ar         0.0012068625        0.0003461428       -0.0000314841
 Ar         0.0009852391       -0.0024007980        0.0020369269
 Ar        -0.0012572285        0.0004403533        0.0006073232
 Ar        -0.0007127453        0.0008780078       -0.0001222287
 Ar        -0.0013824998        0.0006058873        0.0002070983
 Ar        -0.0013579839       -0.0002762119        0.0006771076
 Ar         0.0025776829       -0.0009903026       -0.0011393820
 Ar         0.0003908024       -0.0008695963        0.0016860533
 Ar        -0.0006558426        0.0016568663       -0.0013357635
 Ar        -0.0020040055       -0.0015827271        0.0006997454
 Ar        -0.0004191685        0.0002823972        0.0015725181
 Ar        -0.0020580641       -0.0015016731       -0.0006464412
 Ar        -0.0016091020        0.0009655414       -0.0015019082
 Ar         0.0020516516        0.0002125050       -0.0001212559
 Ar        -0.0004862723       -0.0000483085        0.0028100242
 Ar         0.0015081075       -0.0015198394       -0.0004381414
 Ar         0.0014720403        0.0013404748       -0.0003109274
 Ar         0.0003059148       -0.0002753192       -0.0013632856
 Ar        -0.0007404503        0.0013274244       -0.0002581759
 Ar         0.0009222403       -0.0000663490        0.0008086942
 Ar         0.0021986740        0.0002025648       -0.0001357866
 Ar         0.0003738282        0.0003786328        0.0023665557
 Ar         0.0009905418        0.0011947848        0.0008884471
 Ar         0.0003187925        0.0029606306       -0.0003132382
 Ar         0.0006407152       -0.0006770933        0.0024255598
 Ar         0.0007729795        0.0000460187        0.0010422950
 Ar        -0.0002257756       -0.0015817095       -0.0021378706
 Ar        -0.0007271994       -0.0009810337       -0.0011865423
 Ar         0.0001381629       -0.0005338049        0.0000721068
 Ar         0.0002336658        0.0004823317       -0.0022339810
 Ar        -0.0010600097       -0.0010248234        0.0008598502
 Ar        -0.0005631114        0.0013883828        0.0001856765
 Ar        -0.0008729036       -0.0002489907        0.0013653604
 Ar         0.0022637916       -0.0029483656        0.0015079878
 Ar         0.0009866747        0.0002805462       -0.0006714591
 Ar        -0.0013641889       -0.0003868100       -0.0016283868
 Ar        -0.0019623987       -0.0007408124       -0.0007343116
 Ar        -0.0016776862        0.0024117226       -0.0006723089
 Ar        -0.0028856726        0.0018671129        0.0000511565
 Ar         0.0019996802       -0.0011318166       -0.0009459530
 Ar        -0.0018784109       -0.0000479451        0.0000996970
 Ar        -0.0035679258       -0.0004316835        0.0007824219
 Ar        -0.0014228219        0.0002261594        0.0033767304
 Ar         0.0001022666        0.0012121976       -0.0008369409
 Ar         0.0012868210        0.0015861859        0.0000440183
 Ar         0.0010952278       -0.0011503103       -0.0014834531
 Ar         0.0013773800        0.0007620671       -0.0018440906
 Ar        -0.0002292986       -0.0015200938       -0.0017156910
 Ar        -0.0015073139       -0.0020208170        0.0016669388
 Ar         0.0000022867       -0.0000826518        0.0002121737
 Ar        -0.0001543901        0.0002570516       -0.0006522840
 Ar         0.0002445462       -0.0016511268       -0.0015820340
 Ar        -0.0009959997       -0.0000233435        0.0006094756
 Ar        -0.0007307047       -0.0015874300       -0.0020765850
 Ar         0.0001035518        0.0017204332       -0.0007040621
 Ar         0.0039295139       -0.0001700220       -0.0002683117
 Ar        -0.0006448992        0.0013985359        0.0019325398
 Ar         0.0012743204       -0.0014709935       -0.0014425191
 Ar        -0.0022450190       -0.0001883055        0.0028841512
 Ar         0.0004209557        0.0018627840        0.0001816189
 Ar         0.0015038536        0.0000829145       -0.0010443239
 Ar         0.0011918317       -0.0014828611       -0.0006666961
 Ar         0.0011491099        0.0003803699       -0.0009992750
 Ar         0.0010485377       -0.0009515294        0.0016690762
 Ar         0.0000209470       -0.0004433948        0.0004876898
 Ar         0.0001872503       -0.0004704167       -0.0022882872
 Ar        -0.0010301213       -0.0006282956        0.0006369725
 Ar         0.0006277911       -0.0006964654       -0.0012505897
 Ar         0.0017323422        0.0005081094        0.0055075896
 Ar        -0.0013577145       -0.0002866266        0.0019978166
 Ar        -0.0009699555        0.0018596007        0.0017093858
 Ar         0.0008818053        0.0004870807       -0.0003336617
 Ar         0.0003815393        0.0015619230        0.0018916518
 Ar         0.0019595793       -0.0017376591       -0.0004271803
 Ar         0.0015790272        0.0000352848       -0.0014026298
 Ar         0.0003212402        0.0007754488        0.0004383330
 Ar         0.0011639437       -0.0033377278       -0.0030801511
 Ar         0.0004459661        0.0023607250       -0.0004550414
 Ar         0.0000926778       -0.0018283356        0.0025656441
 Ar         0.0007333967       -0.0010494805        0.0000402016
 Ar        -0.0031062255        0.0021583143        0.0009977287
 Ar        -0.0000286236        0.0033052283       -0.0004170456
 Ar         0.0007117298       -0.0011088585        0.0002617155
 Ar        -0.0021816100       -0.0016761759        0.0012645636
 Ar        -0.0005428793        0.0023895674       -0.0016608389
 Ar         0.0000753111       -0.0039708858       -0.0033819708
 Ar         0.0005480689       -0.0001940745       -0.0020999861
 Ar        -0.0019704235        0.0014308477        0.0001373565
 Ar        -0.0026365653        0.0027247803       -0.0001415151
 Ar        -0.0009790181        0.0004353728       -0.0000479065
 Ar         0.0019022251        0.0011992608       -0.0019255762
 Ar        -0.0002392153       -0.0014363644        0.0025723055
 Ar         0.0006568178       -0.0015466641       -0.0021022101
 Ar         0.0017487769        0.0012243884       -0.0005803287
 Ar        -0.0008291319       -0.0021724063       -0.0012835032
 Ar         0.0002666507       -0.0005370930       -0.0005508742
 Ar        -0.0012108687        0.0007205693        0.0001620188
 Ar         0.0012502064       -0.0008539184        0.0002439959
 Ar        -0.0013195095        0.0013178864       -0.0011588205
     216
 i =        2, time =        2.000, E =        -0.4370364836
 Ar        -0.0012919769       -0.0003472560        0.0008333049
 Ar        -0.0005261894       -0.0006407237       -0.0005072894
 Ar        -0.0008845338       -0.0013672355        0.0028828057
 Ar        -0.0020192650        0.0010755948        0.0026959765
 Ar        -0.0009810493        0.0004558899        0.0009288871
 Ar        -0.0009539002        0.0019089291        0.0000739714
 Ar        -0.0009728834        0.0012670915       -0.0020557344
 Ar        -0.0015870532       -0.0009937462       -0.0015179994
 Ar         0.0013874157       -0.0012647849       -0.0002277319
 Ar         0.0028819768       -0.0009263828       -0.0005584185
 Ar         0.0023725667       -0.0009081423        0.0011153588
 Ar        -0.0004375845        0.0017956018        0.0000599292
 Ar         0.0005685467       -0.0016569380       -0.0009352110
 Ar        -0.0002783065        0.0013575594       -0.0001734261
 Ar         0.0025883968        0.0000859388        0.0028190712
 Ar         0.0008920326        0.0004616436       -0.0001051712
 Ar        -0.0020193230        0.0016263456       -0.0003877771
 Ar         0.0005814764        0.0006092711        0.0008702886
 Ar         0.0000815962       -0.0002756326       -0.0009216396
 Ar         0.0012948860        0.0007493882        0.0008780594
 Ar        -0.0001566195        0.0029575066       -0.0015580864
 Ar         0.0000446717       -0.0005502784        0.0021164568
 Ar         0.0000557088       -0.0007753617       -0.0038720588
 Ar        -0.0003363344        0.0002371172       -0.0014254643
 Ar         0.0011664631       -0.0008539037        0.0021506674
 Ar         0.0014694013        0.0018910307        0.0008121583
 Ar        -0.0021502239        0.0006985766        0.0005536698
 Ar         0.0001472132        0.0000698146       -0.0023009875
 Ar        -0.0002729546        0.0008432032       -0.0017514238
 Ar         0.0001204125       -0.0005368698       -0.0000542539
 Ar         0.0018447984        0.0013246316       -0.0009093139
 Ar         0.0008678948        0.0014456444        0.0029676440
 Ar         0.0016709405        0.0017455877        0.0005455043
 Ar        -0.0012767289       -0.0010063260        0.0027396516
 Ar         0.0010355704       -0.0009206348       -0.0016964277
 Ar        -0.0014755167        0.0002612869       -0.0023854348
 Ar         0.0012064034       -0.0006258276       -0.0006124451
 Ar         0.0025481623        0.0007898627        0.0000975013
 Ar        -0.0003898428       -0.0000371822       -0.0020592083
 Ar        -0.0000736942        0.0002166987        0.0003129874
 Ar         0.0002117906       -0.0022310856       -0.0006807553
 Ar        -0.0014545694       -0.0007471714       -0.0007339715
 Ar        -0.0006025344       -0.0005612044        0.0003851766
 Ar        -0.0008444010       -0.0001263043       -0.0022666725
 Ar        -0.0023125463       -0.0001231083       -0.0003418097
 Ar        -0.0007375631       -0.0013736772        0.0009389243
 Ar         0.0004013182       -0.0028808838        0.0007223058
 Ar         0.0020749638       -0.0000069819       -0.0021214507
 Ar        -0.0003524570       -0.0005403849        0.0009335661
 Ar        -0.0006538610        0.0004685401        0.0008951945
 Ar        -0.0000244014       -0.0000420676        0.0016689460
 Ar        -0.0014293684        0.0016408938        0.0008058868
 Ar         0.0029717288        0.0014562984        0.0001624567
 Ar         0.0001964859        0.0003216219       -0.0021502902
 Ar        -0.0003851111       -0.0023654787       -0.0011628529
 Ar        -0.0012966739       -0.0002899951        0.0018263848
 Ar        -0.0002823614       -0.0007568096        0.0026011949
 Ar        -0.0006469955        0.0018853282        0.0003820290
 Ar        -0.0001251841        0.0019654277        0.0004690668
 Ar        -0.0006105934       -0.0005302128       -0.0006581417
 Ar         0.0009995289        0.0015281304        0.0007413441
 Ar        -0.0015386702        0.0001620045       -0.0002209223
 Ar         0.0002878847       -0.0005229898        0.0014208523
 Ar        -0.0011193656        0.0010973006       -0.0013302449
 Ar         0.0013391926       -0.0019471823        0.0001968691
 Ar        -0.0011705342        0.0018835194       -0.0010197658
 Ar         0.0011085657        0.0017598348        0.0017860920
 Ar         0.0010389801        0.0022839735        0.0007719444
 Ar         0.0003289755        0.0002628002        0.0014701298
 Ar         0.0004410916       -0.0032828680        0.0010829805
 Ar         0.0013215518        0.0031722461       -0.0001195865
 Ar        -0.0012704604       -0.0007524697        0.0009177190
 Ar        -0.0024852476        0.0009419276       -0.0008851229
 Ar         0.0020073357       -0.0011599784       -0.0011360761
 Ar        -0.0008329483       -0.0006749566       -0.0010754815
 Ar        -0.0025623621       -0.0005350895       -0.0013551454
 Ar        -0.0021019488        0.0025993137       -0.0008175473
 Ar         0.0001457612       -0.0020815801        0.0005719135
 Ar        -0.0004189365       -0.0016480137        0.0003053292
 Ar         0.0029083998       -0.0007889029       -0.0006725909
 Ar         0.0012263083        0.0027338976       -0.0027011931
 Ar         0.0006435059       -0.0014098062       -0.0001703271
 Ar        -0.0024520608       -0.0000445805       -0.0008200768
 Ar         0.0016594502        0.0011930498       -0.0014400124
 Ar        -0.0005759962       -0.0007422235       -0.0005317412
 Ar         0.0007079125        0.0013404201       -0.0001490915
 Ar         0.0022325286       -0.0002313751        0.0012422011
 Ar        -0.0011144679        0.0008407422        0.0024280413
 Ar         0.0015423693       -0.0014739108       -0.0003797595
 Ar         0.0008096733       -0.0003703465       -0.0009479142
 Ar        -0.0000532905       -0.0014858347        0.0006969247
 Ar         0.0002203272        0.0000984687       -0.0004665084
 Ar         0.0000612764       -0.0027646753       -0.0004511010
 Ar         0.0009448798       -0.0013369715       -0.0014516724
 Ar         0.0003426704        0.0018269332        0.0005840825
 Ar         0.0003396566       -0.0003200127        0.0011411544
 Ar         0.0006691082       -0.0021039986        0.0005628449
 Ar         0.0010149962       -0.0012567023       -0.0000724531
 Ar         0.0008699366       -0.0000226177       -0.0000136418
 Ar        -0.0013134376        0.0002449663       -0.0015248782
 Ar        -0.0011991577       -0.0006188891        0.0015706183
 Ar        -0.0010917454       -0.0005458873        0.0004279587
 Ar        -0.0015596412       -0.0005346474        0.0005991481
 Ar        -0.0005029421       -0.0001384680        0.0039386403
 Ar         0.0013442429        0.0000429415       -0.0023489253
 Ar         0.0007383247        0.0020481287        0.0014288510
 Ar        -0.0029072993        0.0019620723       -0.0022404005
 Ar         0.0014552560       -0.0002545902       -0.0002463101
 Ar         0.0000675382        0.0010909743        0.0017014477
 Ar        -0.0006051307        0.0016012982        0.0015558222
 Ar        -0.0018565089       -0.0006805570        0.0020496182
 Ar         0.0019729230        0.0010711706       -0.0038544273
 Ar        -0.0009496110       -0.0000395484        0.0005946263
 Ar        -0.0003006484        0.0013704748       -0.0031106387
 Ar         0.0015649717       -0.0030659444        0.0011923027
 Ar        -0.0002610970       -0.0020065539        0.0000540682
 Ar        -0.0014454776       -0.0004844487        0.0010259403
 Ar         0.0012131718        0.0003251802       -0.0000284770
 Ar         0.0009795262       -0.0023809766        0.0020444444
 Ar        -0.0012498194        0.0004278192        0.0006001635
 Ar        -0.0007282191        0.0008667033       -0.0001083323
 Ar        -0.0013790496        0.0006112963        0.0001748294
 Ar        -0.0013686122       -0.0002690414        0.0006762957
 Ar         0.0025843541       -0.0009808731       -0.0011187174
 Ar         0.0003866874       -0.0008699341        0.0016894023
 Ar        -0.0006750233        0.0016570234       -0.0013327134
 Ar        -0.0019972162       -0.0015944814        0.0006932021
 Ar        -0.0003875128        0.0002797168        0.0015659213
 Ar        -0.0020520328       -0.0014865352       -0.0006654468
 Ar        -0.0016065482        0.0009639217       -0.0015031201
 Ar         0.0020225381        0.0002076266       -0.0001480543
 Ar        -0.0004671150       -0.0000554129        0.0028029041
 Ar         0.0015009591       -0.0015247433       -0.0003667942
 Ar         0.0014550914        0.0013837886       -0.0003371056
 Ar         0.0002972139       -0.0002712800       -0.0013700927
 Ar        -0.0007347893        0.0013208387       -0.0002507141
 Ar         0.0009135098       -0.0001275844        0.0007861462
 Ar         0.0021860709        0.0002080116       -0.0001392648
 Ar         0.0003630389        0.0004049446        0.0023495038
 Ar         0.0009601189        0.0011911537        0.0008687453
 Ar         0.0003033148        0.0029598317       -0.0003757679
 Ar         0.0006328592       -0.0006787623        0.0024267914
 Ar         0.0007661685        0.0000329866        0.0010475384
 Ar        -0.0002175281       -0.0015386740       -0.0021495800
 Ar        -0.0007124049       -0.0009791544       -0.0011837801
 Ar         0.0001375625       -0.0005074987        0.0000758263
 Ar         0.0001876842        0.0005193824       -0.0022668373
 Ar        -0.0010738755       -0.0010169989        0.0008380834
 Ar        -0.0005615716        0.0014003065        0.0001837914
 Ar        -0.0008446279       -0.0002207588        0.0013713292
 Ar         0.0022524707       -0.0029513160        0.0015170471
 Ar         0.0009702328        0.0002919882       -0.0006593421
 Ar        -0.0013637222       -0.0004016662       -0.0015921583
 Ar        -0.0019793310       -0.0007575178       -0.0007430227
 Ar        -0.0016684479        0.0023704133       -0.0006985566
 Ar        -0.0028665256        0.0018440939        0.0000802890
 Ar         0.0019853372       -0.0011388795       -0.0009431660
 Ar        -0.0018355637       -0.0000386012        0.0001111451
 Ar        -0.0035468592       -0.0004036700        0.0007961242
 Ar        -0.0014014731        0.0001815814        0.0033747898
 Ar         0.0001152683        0.0011987967       -0.0008259865
 Ar         0.0012807652        0.0015825117        0.0000616720
 Ar         0.0010736952       -0.0011060802       -0.0014919355
 Ar         0.0013879931        0.0007348100       -0.0018196493
 Ar        -0.0002254866       -0.0015006309       -0.0017268529
 Ar        -0.0015212983       -0.0020063395        0.0016360198
 Ar         0.0000262734       -0.0001362568        0.0001985157
 Ar        -0.0001539944        0.0002724935       -0.0006376537
 Ar         0.0002626066       -0.0016415402       -0.0015758167
 Ar        -0.0010094717       -0.0000514105        0.0006205712
 Ar        -0.0007243577       -0.0015726657       -0.0020640797
 Ar         0.0001172704        0.0017463555       -0.0006735976
 Ar         0.0038928057       -0.0001847263       -0.0002675019
 Ar        -0.0006332067        0.0013870180        0.0019447396
 Ar         0.0012600986       -0.0014639490       -0.0014400309
 Ar        -0.0022476718       -0.0002195232        0.0028815033
 Ar         0.0004246796        0.0018498592        0.0001962976
 Ar         0.0014775159        0.0000845710       -0.0010539505
 Ar         0.0011865981       -0.0014707076       -0.0006761705
 Ar         0.0011467612        0.0003982325       -0.0009828545
 Ar         0.0010569618       -0.0009386014        0.0016650936
 Ar         0.0000192724       -0.0004381636        0.0004969287
 Ar         0.0001992634       -0.0004837907       -0.0022963876
 Ar        -0.0010501504       -0.0006313086        0.0006384029
 Ar         0.0006330808       -0.0006881840       -0.0012309586
 Ar         0.0017082913        0.0005107682        0.0055073663
 Ar        -0.0013454802       -0.0002181325        0.0019923081
 Ar        -0.0009509870        0.0018558195        0.0016963889
 Ar         0.0008835116        0.0004881762       -0.0003392229
 Ar         0.0003505767        0.0015904694        0.0019070246
 Ar         0.0019504129       -0.0017291079       -0.0004360054
 Ar         0.0015612312        0.0000269838       -0.0013835082
 Ar         0.0003097004        0.0007667508        0.0004428961
 Ar         0.0011162040       -0.0033297451       -0.0030904081
 Ar         0.0004428979        0.0023895164       -0.0004722409
 Ar         0.0001222233       -0.0018052515        0.0025817222
 Ar         0.0007419501       -0.0010218907        0.0000428593
 Ar        -0.0030860118        0.0021294571        0.0009790517
 Ar        -0.0000175914        0.0032530403       -0.0003845619
 Ar         0.0007063229       -0.0011063318        0.0002699583
 Ar        -0.0021335145       -0.0016416576        0.0012989799
 Ar        -0.0005195697        0.0023736659       -0.0016979723
 Ar         0.0000694741       -0.0039640612       -0.0033796882
 Ar         0.0005585809       -0.0001665065       -0.0021071553
 Ar        -0.0019506466        0.0014200845        0.0001301476
 Ar        -0.0026218269        0.0027069378       -0.0001586774
 Ar        -0.0009701226        0.0004225582       -0.0000543797
 Ar         0.0018952847        0.0011818835       -0.0019340811
 Ar        -0.0002657071       -0.0014160316        0.0025913053
 Ar         0.0006733008       -0.0015512587       -0.0020889747
 Ar         0.0017526615        0.0011995674       -0.0005780244
 Ar        -0.0008102224       -0.0021810315       -0.0012539727
 Ar         0.0002433692       -0.0005341744       -0.0005582181
 Ar        -0.0012076476        0.0007058868        0.0001531063
 Ar         0.0012420429       -0.0008563370        0.0002154314
 Ar        -0.0013303796        0.0013452329       -0.0011805293
     216
 i =        4, time =        4.000, E =        -0.4370557849
 Ar        -0.0012859865       -0.0003458403        0.0008337622
 Ar        -0.0005151013       -0.0006417295       -0.0005110907
 Ar        -0.0008637739       -0.0013738142        0.0028819089
 Ar        -0.0020259752        0.0010980076        0.0027030280
 Ar        -0.0009508648        0.0004805032        0.0009078801
 Ar        -0.0009528428        0.0018415456        0.0000771510
 Ar        -0.0010113787        0.0012834216       -0.0020456232
 Ar        -0.0015798693       -0.0009591842       -0.0014740573
 Ar         0.0013839625       -0.0012540629       -0.0002305131
 Ar         0.0028651794       -0.0009729071       -0.0005757231
 Ar         0.0023693557       -0.0009066052        0.0011347182
 Ar        -0.0004541210        0.0017891890        0.0000433366
 Ar         0.0005700271       -0.0016606955       -0.0009263600
 Ar        -0.0002682313        0.0013860239       -0.0002181900
 Ar         0.0026018829        0.0000706949        0.0028168744
 Ar         0.0008938686        0.0004587595       -0.0001480025
 Ar        -0.0020162428        0.0016332809       -0.0003721743
 Ar         0.0005363201        0.0006467945        0.0008712855
 Ar         0.0000882284       -0.0002976000       -0.0009617902
 Ar         0.0012795033        0.0007695301        0.0008642949
 Ar        -0.0001869418        0.0029470951       -0.0015693012
 Ar         0.0000214231       -0.0005344088        0.0020984793
 Ar         0.0000322366       -0.0007847692       -0.0038624317
 Ar        -0.0003513161        0.0002147062       -0.0013988304
 Ar         0.0011587320       -0.0008458397        0.0021486801
 Ar         0.0014790404        0.0019018744        0.0008269898