     216
 i =    50000, time =    50000.000, E =        -0.4370097132
 Ar         2.5955085636        1.7517701055        8.1060220727
 Ar         4.5256285896       11.6149728854        8.0559420819
 Ar        14.3774248319        0.7623438040       -8.4030182376
 Ar         7.3568246526        2.1660142265        1.6972301793
 Ar        17.1015118361       -0.0333776779       -5.1924170867
 Ar        25.1888440562        0.4515329810       -3.7356264665
 Ar        -4.9508903282       -0.4284643846        6.2628203338
 Ar         3.1671660871       14.4810948336        2.7167921630
 Ar         1.6227497063       -4.8564842109        0.3521803235
 Ar        14.3264251818        1.7710456581        4.0076918458
 Ar        24.5456852710        5.5729933948        4.2056565908
 Ar        21.5580429809       11.2779941680      -10.1333474575
 Ar         1.2017821171        8.3808610166        7.0519107604
 Ar         2.7878258355        3.7502299536       -3.6003110452
 Ar         0.0146015110       -0.0271596921        1.5624129943
 Ar        18.1308311440        6.8319546007        4.1486065318
 Ar        18.9160296136       -2.0995153021        8.6434079296
 Ar        19.1917454042       21.2582705760       -1.9121968950
 Ar         3.1547318576       12.7347030000       -0.1607888565
 Ar         5.3850063700       16.4819282533        0.7872402190
 Ar        14.3589920583       14.9465087009        6.7234551244
 Ar         6.1528482583        5.5296369427        2.4945137282
 Ar        14.2028111886       20.1486833884        4.1297836665
 Ar        13.1764167697       13.8308312197        1.4457519322
 Ar         4.1612463857       17.7229687918       -2.6182485437
 Ar         8.4717716244       14.2878974072       -7.8628874097
 Ar         5.2933127011       21.0401390808        6.6119911678
 Ar        13.1497314443       18.0010105004        1.4565945758
 Ar         3.0830998204       10.6182296406        3.7172442584
 Ar        20.7030200545       17.0591351470        7.1288147876
 Ar        -9.5145298596       18.5866345475        6.7572838230
 Ar        10.8057657258       17.2636940299       -1.2433296373
 Ar         5.5267000543       12.6774982313        4.7219838382
 Ar        18.1291627225       11.9881287181       -4.1305594467
 Ar        21.1468821799       13.9124505681       -7.3251184046
 Ar        17.3270751725       19.8974812004        2.7338165498
 Ar       -10.3027196314        8.5340393463        3.6621628144
 Ar         6.5865839323        0.8799038253        9.3498456937
 Ar        -0.8055872557       -3.4872914405        3.7989168628
 Ar         9.7727608378       -3.4782582022        2.2518088045
 Ar         9.4109524541       -3.5296506689       14.0501908291
 Ar        18.8337720100       -6.5351340235       -1.8960812671
 Ar        -1.8362494994       -0.1097497280        4.9694907469
 Ar        -0.9265735641        3.9619506293        3.3834461083
 Ar         4.6470061215        3.3093989349       11.7886304267
 Ar         6.5380210044        8.0356948459       -4.1679780351
 Ar        15.0267267521        5.1187857869       -1.5094230180
 Ar        18.7791103068        1.3661440461        1.1720592107
 Ar        -2.0197830135        8.6932823961        1.0582170667
 Ar        -5.6111558119       11.6943188216        7.2349886924
 Ar         8.2288274145        1.0196122436        5.8741598298
 Ar        13.0678528738        3.3414774032       -6.2457488178
 Ar        15.3037623784        8.1727544635        5.8241776679
 Ar        13.2714847493        8.7727375986       -2.3126885072
 Ar        -1.9532672176        4.5433310063        0.1999927793
 Ar         4.8633194881        2.4827030452       -1.1201000999
 Ar         9.6344195524        8.6024679059       -2.3888519415
 Ar        12.3106404167       14.2930648672       -6.5244121326
 Ar        25.8643513719        6.3264366998       -1.3429259054
 Ar        12.4873341170       11.3511354637        7.6234544426
 Ar         7.8770339931       13.8899101721        1.5054492429
 Ar         9.2924005191       16.9942055500       -4.4855987870
 Ar        14.5559141031       15.8186265139       -0.8770733260
 Ar         6.5022835228       20.9818208332        3.4474998782
 Ar         5.5777835436       15.9353458898        7.7578459102
 Ar         7.6924717057        5.1935396969       12.7434549513
 Ar         0.7840828122       20.3468253382       -1.7104570333
 Ar         0.9265939322       19.9587798947        6.9137382095
 Ar         2.6502388170       17.0877459311        9.1341190036
 Ar         5.8574400196       18.9020675063       12.9955020286
 Ar        17.5338351245       17.8921989052        5.9403053278
 Ar        15.3075919105       22.7365547613        0.2421190182
 Ar        -5.2932428999        4.1007348899        1.6573346976
 Ar         1.8055940076        5.0201630103        0.9277668488
 Ar        -1.6941060205        1.3880124224        8.0594423008
 Ar         9.4591999661       -0.5621746670       11.2404760587
 Ar         7.3067863254        5.2597525113        7.5891111827
 Ar        16.8410198665       -4.3697049073       10.7937122003
 Ar        -1.6207751004       12.7009563371        8.5426120200
 Ar         3.3595386775        5.5534395190        7.7897314571
 Ar         1.8022229801        1.1509099670        4.4388492740
 Ar        12.7224672488        5.7754487119        1.3709295860
 Ar        18.8772540564        3.8615972511       10.0555565258
 Ar         8.2407675434       -6.9242788743        5.4739833393
 Ar         0.7154258470       12.7582695760       -3.0748207810
 Ar        -3.6352904298        6.1324353355        7.4714303906
 Ar        10.7384116567        3.0256331102        2.8971469878
 Ar         5.3325834047        2.9498755457        4.8942754015
 Ar         9.4656603787        6.4392867887        1.1662747161
 Ar        20.4406482077       11.8289693209       -0.3562191620
 Ar         0.4712037871       12.3260978469        2.3809829180
 Ar         0.1756744396       11.4317657811        5.6625686351
 Ar        12.2266940507        5.9763126771       11.0749142278
 Ar         5.4131483058        7.8182023184        5.5235418652
 Ar        15.9991339453       18.8461980308       17.8672939951
 Ar         7.1251384093       11.7415695543       -5.7148186461
 Ar        -4.8713155066       22.7732243106       10.6069899683
 Ar        -2.6520215206        9.5368149594        7.3693719798
 Ar        -0.7580502763       15.7564435209       11.5419984593
 Ar        20.2962093621       15.3940527884        1.6107923813
 Ar        10.8025820975       22.1573963379       14.8507332373
 Ar        21.6574249490        7.6331856331        3.7157183423
 Ar        -0.0443624584       19.1240698368       10.5933758437
 Ar        -0.1789822671       26.4190180236        6.9577904584
 Ar        11.6261086470       15.7676331611        4.0174672244
 Ar         7.2586702840       20.5873019953       16.3718830770
 Ar         9.7099697100       16.9833811790       10.6259291437
 Ar        19.3165495168       14.3136420493        5.1845334541
 Ar        12.7535659811        1.6458135539       10.4362920654
 Ar         3.0930916112       -1.4968946243       11.1044935602
 Ar        12.4396032335       -2.3110886306       12.3799197728
 Ar         9.2935289369       -0.3291404671       22.2603928965
 Ar        14.4441553472        1.5216746015       18.4455575692
 Ar         5.4892775762       -4.8384875350        4.1573354549
 Ar        -4.0829863446        3.1122967345        4.9316358612
 Ar         6.7752035758        0.6236833810       13.0680077888
 Ar         1.0436357680        4.8640673677       10.7867264888
 Ar         9.4272508226        3.3896771329        9.5136030015
 Ar        17.2775512540       -1.9660192213       13.4026572964
 Ar        11.9449816560        0.6917485068        7.0316946355
 Ar        -3.1487677088        5.3973020741       13.3269057851
 Ar        16.6327491416        3.5742667058       16.0035371122
 Ar         8.8533440464       -3.2969809273        5.9050906534
 Ar         8.9625570546        5.8520691171        4.5606318894
 Ar        20.5788766446        4.9829818993       16.6021173786
 Ar        11.8415102555        4.3315810441        6.8347747947
 Ar        -4.2497161083       10.2937128813       11.0169890374
 Ar         9.4505812386       13.3479190710       18.6315814361
 Ar         6.0264960974       15.6914940425       11.6118535947
 Ar        16.6881261640       15.8590758550        2.6428577212
 Ar        11.3982487652        7.9832306505        8.3233608742
 Ar        14.5540823125       13.1789350400       11.2108623176
 Ar        -4.2860872376       15.1374497894        7.9212850978
 Ar         2.4873371213       13.4179685483       10.6246815838
 Ar         2.4564567860       14.2701501829        6.5963726358
 Ar         9.4694734016       11.3869063270        9.9176763019
 Ar        13.3026012195       17.1089607914       10.1907836959
 Ar        18.1840158853       16.2774389702       14.5639239543
 Ar         2.7936809155       16.5904678020       13.1550400653
 Ar         6.1758372977       15.4728207942       16.4973170842
 Ar        -1.6573307538       29.4454730359       11.0276680642
 Ar         8.6974747876       10.2064458953        6.4561985977
 Ar        22.3022293443       23.2164533702       11.2355743936
 Ar        14.8510078662       20.0086269244        9.2159851145
 Ar         2.2202155688        7.4258806010       16.7595583443
 Ar         4.0123749132        6.6666820632       11.8775033033
 Ar         0.5173540387        5.7448781277       19.7761427627
 Ar        12.3318594883        2.5091548482       21.6587939890
 Ar        21.6710205187        1.8574273631       19.2005505985
 Ar        14.9588364771        3.8669296831       12.0969161996
 Ar         1.7459128501        4.4979154729       14.2616459096
 Ar         7.9853236011        4.8293243827       19.5226824424
 Ar        10.7531180472        3.3303818935       12.7466264354
 Ar        11.6865989559        5.6127315657       19.5275994546
 Ar        20.1201825278       -3.3960491244       18.2522404469
 Ar        16.4195470194        6.7225149476       10.2923889519
 Ar        -7.5361031115       10.4907712156       22.7807978585
 Ar         4.9863477568        9.2926584507       22.1414756534
 Ar        10.6637199674       14.2639336413        7.8947809490
 Ar        11.8102921005        7.4989533731       15.9862959061
 Ar        15.1574803661        3.8106452349        8.1396652362
 Ar        26.5292911455        9.4133665080       14.2505739547
 Ar        14.1203850651        9.2328503670       10.2455102186
 Ar        -0.2272707995        7.4406188229       14.0393431888
 Ar         9.2036270418        4.3120925284       16.0566568381
 Ar        14.3157438681       11.5506701301       26.2858958156
 Ar        14.6546019768        7.9537665844       13.4982094180
 Ar        15.5399248890        9.3960559258       16.5700003494
 Ar         6.6897900627       11.2071301179       19.7497388057
 Ar         3.2470386750       10.1459913624       11.0477445377
 Ar         5.1324559262        5.0548764949       15.2420378677
 Ar        10.2659124730       11.9021309107        3.6242899260
 Ar        16.4874179506       13.0483824873       14.6305505808
 Ar        21.4030828199       17.9686222449       14.2707836745
 Ar         6.6827799604       14.9262176861       19.8977938681
 Ar         6.3694611864       12.2734288858       12.0414092940
 Ar         6.7577699302       19.0394564059        9.2057164616
 Ar        16.7363115493       18.5817488361       21.3753894413
 Ar        25.0720462262       22.8096576886       14.4886967167
 Ar        18.9325452534       23.4884149335       13.3107819356
 Ar        14.4264242309       -5.1411614745       13.8437760626
 Ar        -3.5202548179      -10.4902123567       24.8663544897
 Ar         6.5244154886        9.1001698448       10.2408679360
 Ar        13.7302163510       -1.6572264578       15.7719450072
 Ar        20.8182472988       -0.5683872674       15.2421115186
 Ar        18.9668747219        9.8244516228       14.6065110727
 Ar        -7.2472479255        4.9356672079       26.5524909704
 Ar         3.9649159558       -1.1574596886       21.8489297526
 Ar         6.3660792975        2.2152508684       17.2919907168
 Ar        10.6946592489       10.6007661355       16.6295183424
 Ar        24.0236983947       -6.2261560264       16.8858911132
 Ar        24.7557044743       -2.2625363591       24.9993326735
 Ar        -0.7088103885        9.3208954021       18.1518420663
 Ar         1.7132483691        8.8744870168       22.7546110764
 Ar        12.9989215838       10.8224974928       14.0740205856
 Ar        12.8872112439       -1.5536801860       20.5820004739
 Ar        13.1716250717       12.2023487098       18.6713993705
 Ar        17.0836151645        9.7083164820       20.7117474240
 Ar         3.3005809791       13.3247367719       14.0013193472
 Ar         3.2671386349       -2.5587821742       15.6580344539
 Ar         0.6530543252       10.5795322914       14.9543668736
 Ar         8.2662435004        8.4687762648       14.8179666196
 Ar         7.7402474735        9.6307551014       24.5052478411
 Ar        18.1671161689       13.6454329695       11.5948129496
 Ar        -4.2534643117        6.9620152772       18.3588211397
 Ar         3.8378622146       11.6891120157       17.7184921427
 Ar        12.9115673019       17.1116216256       17.6981563454
 Ar        11.2943952011       14.1663235924       11.8924481442
 Ar        17.0582446262       13.0015062389       21.7787364406
 Ar        20.0870194439       18.7630327538       22.1784158516
 Ar        10.0774595204       23.8679180236       18.6592074956
 Ar        -3.8116193591       25.2081816117       19.1059532947
 Ar        16.2518590802       15.1851791407       17.5833240593
 Ar         7.3647879517       19.0402959206       20.6333939901
 Ar        10.6991820581       11.0743386453        0.2969919672
 Ar        32.5030249763       20.0375175565       18.0644695618
