 DBCSR| Multiplication driver                                               XSMM
 DBCSR| Multrec recursion limit                                              512
 DBCSR| Multiplication stack size                                           1000
 DBCSR| Maximum elements for images                                    UNLIMITED
 DBCSR| Multiplicative factor virtual images                                   1
 DBCSR| Multiplication size stacks                                             3
 DBCSR| Number of 3D layers                                               SINGLE
 DBCSR| Use MPI memory allocation                                              T
 DBCSR| Use RMA algorithm                                                      F
 DBCSR| Use Communication thread                                               T
 DBCSR| Communication thread load                                             87


  **** **** ******  **  PROGRAM STARTED AT               2022-12-23 19:41:58.515
 ***** ** ***  *** **   PROGRAM STARTED ON                                r4i6n7
 **    ****   ******    PROGRAM STARTED BY                               sasakir
 ***** **    ** ** **   PROGRAM PROCESS ID                                129284
  **** **  *******  **  PROGRAM STARTED IN /home/sasakir/apl/cp2kv6/cp2kccd/test
                                           _nemd/Argon_cd

 CP2K| version string:                                          CP2K version 6.1
 CP2K| source code revision number:                                    svn:18464
 CP2K| cp2kflags: omp libint fftw3 libxc pexsi elpa=201705 elpa_qr parallel mpi3
 CP2K|             scalapack xsmm libderiv_max_am1=5 libint_max_am=6
 CP2K| is freely available from                            https://www.cp2k.org/
 CP2K| Program compiled at                          Fri Dec 23 18:36:04 JST 2022
 CP2K| Program compiled on                                               asahi01
 CP2K| Program compiled for                                                 i256
 CP2K| Data directory path                 /home/sasakir/apl/cp2kv6/cp2kccd/data
 CP2K| Input file name                                                  nemd.inp
 
 GLOBAL| Force Environment number                                              1
 GLOBAL| Basis set file name                                           BASIS_SET
 GLOBAL| Potential file name                                           POTENTIAL
 GLOBAL| MM Potential file name                                     MM_POTENTIAL
 GLOBAL| Coordinate file name                                            ini.xyz
 GLOBAL| Method name                                                        CP2K
 GLOBAL| Project name                                                      argon
 GLOBAL| Preferred FFT library                                             FFTW3
 GLOBAL| Preferred diagonalization lib.                                       SL
 GLOBAL| Run type                                                             MD
 GLOBAL| All-to-all communication in single precision                          F
 GLOBAL| FFTs using library dependent lengths                                  F
 GLOBAL| Global print level                                               MEDIUM
 GLOBAL| Total number of message passing processes                             1
 GLOBAL| Number of threads for this process                                    1
 GLOBAL| This output is from process                                           0
 GLOBAL| CPU model name :  Intel(R) Xeon(R) Platinum 8268 CPU @ 2.90GHz

 MEMORY| system memory details [Kb]
 MEMORY|                        rank 0           min           max       average
 MEMORY| MemTotal            196338908     196338908     196338908     196338908
 MEMORY| MemFree             186875616     186875616     186875616     186875616
 MEMORY| Buffers                     0             0             0             0
 MEMORY| Cached                4680548       4680548       4680548       4680548
 MEMORY| Slab                   619948        619948        619948        619948
 MEMORY| SReclaimable           113144        113144        113144        113144
 MEMORY| MemLikelyFree       191669308     191669308     191669308     191669308


 *** Fundamental physical constants (SI units) ***

 *** Literature: B. J. Mohr and B. N. Taylor,
 ***             CODATA recommended values of the fundamental physical
 ***             constants: 2006, Web Version 5.1
 ***             http://physics.nist.gov/constants

 Speed of light in vacuum [m/s]                             2.99792458000000E+08
 Magnetic constant or permeability of vacuum [N/A**2]       1.25663706143592E-06
 Electric constant or permittivity of vacuum [F/m]          8.85418781762039E-12
 Planck constant (h) [J*s]                                  6.62606896000000E-34
 Planck constant (h-bar) [J*s]                              1.05457162825177E-34
 Elementary charge [C]                                      1.60217648700000E-19
 Electron mass [kg]                                         9.10938215000000E-31
 Electron g factor [ ]                                     -2.00231930436220E+00
 Proton mass [kg]                                           1.67262163700000E-27
 Fine-structure constant                                    7.29735253760000E-03
 Rydberg constant [1/m]                                     1.09737315685270E+07
 Avogadro constant [1/mol]                                  6.02214179000000E+23
 Boltzmann constant [J/K]                                   1.38065040000000E-23
 Atomic mass unit [kg]                                      1.66053878200000E-27
 Bohr radius [m]                                            5.29177208590000E-11

 *** Conversion factors ***

 [u] -> [a.u.]                                              1.82288848426455E+03
 [Angstrom] -> [Bohr] = [a.u.]                              1.88972613288564E+00
 [a.u.] = [Bohr] -> [Angstrom]                              5.29177208590000E-01
 [a.u.] -> [s]                                              2.41888432650478E-17
 [a.u.] -> [fs]                                             2.41888432650478E-02
 [a.u.] -> [J]                                              4.35974393937059E-18
 [a.u.] -> [N]                                              8.23872205491840E-08
 [a.u.] -> [K]                                              3.15774647902944E+05
 [a.u.] -> [kJ/mol]                                         2.62549961709828E+03
 [a.u.] -> [kcal/mol]                                       6.27509468713739E+02
 [a.u.] -> [Pa]                                             2.94210107994716E+13
 [a.u.] -> [bar]                                            2.94210107994716E+08
 [a.u.] -> [atm]                                            2.90362800883016E+08
 [a.u.] -> [eV]                                             2.72113838565563E+01
 [a.u.] -> [Hz]                                             6.57968392072181E+15
 [a.u.] -> [1/cm] (wave numbers)                            2.19474631370540E+05
 [a.u./Bohr**2] -> [1/cm]                                   5.14048714338585E+03
 


                      ************* ******** ***********   
                     ************* **********************  
                     ****     **** ****      ***********   
                     ******** ****  *******     ****       
                     *******  ****   *******   ****        
                     ****     ****       ****  ****        
                     ****     **** **********  ****        
                      ****     **** ********    ****       
                     FRONTIERS IN SIMULATION TECHNOLOGY    
                                                           
                        C.J. Mundy, S. Balasubramanian,    
                     Ken Bagchi, J. Hutter, Ari Seitsonen  
                      IFW Kuo, T. Laino, J. VandeVondele   
                                 Version 1.0               

                                                           


 CELL| Volume [angstrom^3]:                                            10428.242
 CELL| Vector a [angstrom]:      21.848     0.000     0.000    |a| =      21.848
 CELL| Vector b [angstrom]:       0.000    21.848     0.000    |b| =      21.848
 CELL| Vector c [angstrom]:       0.000     0.000    21.848    |c| =      21.848
 CELL| Angle (b,c), alpha [degree]:                                       90.000
 CELL| Angle (a,c), beta  [degree]:                                       90.000
 CELL| Angle (a,b), gamma [degree]:                                       90.000
 CELL| Numerically orthorhombic:                                             YES

 CELL_REF| Volume [angstrom^3]:                                        10428.242
 CELL_REF| Vector a [angstrom    21.848     0.000     0.000    |a| =      21.848
 CELL_REF| Vector b [angstrom     0.000    21.848     0.000    |b| =      21.848
 CELL_REF| Vector c [angstrom     0.000     0.000    21.848    |c| =      21.848
 CELL_REF| Angle (b,c), alpha [degree]:                                   90.000
 CELL_REF| Angle (a,c), beta  [degree]:                                   90.000
 CELL_REF| Angle (a,b), gamma [degree]:                                   90.000
 CELL_REF| Numerically orthorhombic:                                         YES
 EWALD|                                                                 not used

 CELL_TOP| Volume [angstrom^3]:                                        10428.242
 CELL_TOP| Vector a [angstrom    21.848     0.000     0.000    |a| =      21.848
 CELL_TOP| Vector b [angstrom     0.000    21.848     0.000    |b| =      21.848
 CELL_TOP| Vector c [angstrom     0.000     0.000    21.848    |c| =      21.848
 CELL_TOP| Angle (b,c), alpha [degree]:                                   90.000
 CELL_TOP| Angle (a,c), beta  [degree]:                                   90.000
 CELL_TOP| Angle (a,b), gamma [degree]:                                   90.000
 CELL_TOP| Numerically orthorhombic:                                         YES
 
 GENERATE|  Preliminary Number of Bonds generated:                             0
 GENERATE|  Achieved consistency in connectivity generation.
 CHARGE_INFO| Total Charge of the Classical System:                     0.000000
 
 FORCEFIELD| WARNING: A non Critical ForceField parameter is missing! CP2K GOES!
 FORCEFIELD| Non critical parameters are:Urey-Bradley,Torsions,Impropers, Opbends and 1-4
 FORCEFIELD| All missing parameters will not contribute to the potential energy!
 FORCEFIELD| Activate the print key FF_INFO to have a list of missing parameters
 

 SPLINE_INFO| Generating 1 splines for NONBONDED14 interactions 
              Due to 1 different atomic kinds
  ...1
 SPLINE_INFO| Number of unique splines computed:            1
 SPLINE_INFO| Done

 SPLINE_INFO| Generating 1 splines for NONBONDED interactions 
              Due to 1 different atomic kinds
  ...1
 SPLINE_INFO| Number of unique splines computed:            1
 SPLINE_INFO| Done


 MOLECULE KIND INFORMATION


 All atoms are their own molecule, skipping detailed information


 MODULE FIST:  ATOMIC COORDINATES IN ANGSTROM

  Atom  Kind  ATM_TYP       X           Y           Z          q(eff)       Mass

     1    1   Ar         2.595509    1.751770    8.106022      0.00      39.9480
     2    1   Ar         4.525629   11.614973    8.055942      0.00      39.9480
     3    1   Ar        14.377425    0.762344   -8.403018      0.00      39.9480
     4    1   Ar         7.356825    2.166014    1.697230      0.00      39.9480
     5    1   Ar        17.101512   -0.033378   -5.192417      0.00      39.9480
     6    1   Ar        25.188844    0.451533   -3.735626      0.00      39.9480
     7    1   Ar        -4.950890   -0.428464    6.262820      0.00      39.9480
     8    1   Ar         3.167166   14.481095    2.716792      0.00      39.9480
     9    1   Ar         1.622750   -4.856484    0.352180      0.00      39.9480
    10    1   Ar        14.326425    1.771046    4.007692      0.00      39.9480
    11    1   Ar        24.545685    5.572993    4.205657      0.00      39.9480
    12    1   Ar        21.558043   11.277994  -10.133347      0.00      39.9480
    13    1   Ar         1.201782    8.380861    7.051911      0.00      39.9480
    14    1   Ar         2.787826    3.750230   -3.600311      0.00      39.9480
    15    1   Ar         0.014602   -0.027160    1.562413      0.00      39.9480
    16    1   Ar        18.130831    6.831955    4.148607      0.00      39.9480
    17    1   Ar        18.916030   -2.099515    8.643408      0.00      39.9480
    18    1   Ar        19.191745   21.258271   -1.912197      0.00      39.9480
    19    1   Ar         3.154732   12.734703   -0.160789      0.00      39.9480
    20    1   Ar         5.385006   16.481928    0.787240      0.00      39.9480
    21    1   Ar        14.358992   14.946509    6.723455      0.00      39.9480
    22    1   Ar         6.152848    5.529637    2.494514      0.00      39.9480
    23    1   Ar        14.202811   20.148683    4.129784      0.00      39.9480
    24    1   Ar        13.176417   13.830831    1.445752      0.00      39.9480
    25    1   Ar         4.161246   17.722969   -2.618249      0.00      39.9480
    26    1   Ar         8.471772   14.287897   -7.862887      0.00      39.9480
    27    1   Ar         5.293313   21.040139    6.611991      0.00      39.9480
    28    1   Ar        13.149731   18.001011    1.456595      0.00      39.9480
    29    1   Ar         3.083100   10.618230    3.717244      0.00      39.9480
    30    1   Ar        20.703020   17.059135    7.128815      0.00      39.9480
    31    1   Ar        -9.514530   18.586635    6.757284      0.00      39.9480
    32    1   Ar        10.805766   17.263694   -1.243330      0.00      39.9480
    33    1   Ar         5.526700   12.677498    4.721984      0.00      39.9480
    34    1   Ar        18.129163   11.988129   -4.130559      0.00      39.9480
    35    1   Ar        21.146882   13.912451   -7.325118      0.00      39.9480
    36    1   Ar        17.327075   19.897481    2.733817      0.00      39.9480
    37    1   Ar       -10.302720    8.534039    3.662163      0.00      39.9480
    38    1   Ar         6.586584    0.879904    9.349846      0.00      39.9480
    39    1   Ar        -0.805587   -3.487291    3.798917      0.00      39.9480
    40    1   Ar         9.772761   -3.478258    2.251809      0.00      39.9480
    41    1   Ar         9.410952   -3.529651   14.050191      0.00      39.9480
    42    1   Ar        18.833772   -6.535134   -1.896081      0.00      39.9480
    43    1   Ar        -1.836249   -0.109750    4.969491      0.00      39.9480
    44    1   Ar        -0.926574    3.961951    3.383446      0.00      39.9480
    45    1   Ar         4.647006    3.309399   11.788630      0.00      39.9480
    46    1   Ar         6.538021    8.035695   -4.167978      0.00      39.9480
    47    1   Ar        15.026727    5.118786   -1.509423      0.00      39.9480
    48    1   Ar        18.779110    1.366144    1.172059      0.00      39.9480
    49    1   Ar        -2.019783    8.693282    1.058217      0.00      39.9480
    50    1   Ar        -5.611156   11.694319    7.234989      0.00      39.9480
    51    1   Ar         8.228827    1.019612    5.874160      0.00      39.9480
    52    1   Ar        13.067853    3.341477   -6.245749      0.00      39.9480
    53    1   Ar        15.303762    8.172754    5.824178      0.00      39.9480
    54    1   Ar        13.271485    8.772738   -2.312689      0.00      39.9480
    55    1   Ar        -1.953267    4.543331    0.199993      0.00      39.9480
    56    1   Ar         4.863319    2.482703   -1.120100      0.00      39.9480
    57    1   Ar         9.634420    8.602468   -2.388852      0.00      39.9480
    58    1   Ar        12.310640   14.293065   -6.524412      0.00      39.9480
    59    1   Ar        25.864351    6.326437   -1.342926      0.00      39.9480
    60    1   Ar        12.487334   11.351135    7.623454      0.00      39.9480
    61    1   Ar         7.877034   13.889910    1.505449      0.00      39.9480
    62    1   Ar         9.292401   16.994206   -4.485599      0.00      39.9480
    63    1   Ar        14.555914   15.818627   -0.877073      0.00      39.9480
    64    1   Ar         6.502284   20.981821    3.447500      0.00      39.9480
    65    1   Ar         5.577784   15.935346    7.757846      0.00      39.9480
    66    1   Ar         7.692472    5.193540   12.743455      0.00      39.9480
    67    1   Ar         0.784083   20.346825   -1.710457      0.00      39.9480
    68    1   Ar         0.926594   19.958780    6.913738      0.00      39.9480
    69    1   Ar         2.650239   17.087746    9.134119      0.00      39.9480
    70    1   Ar         5.857440   18.902068   12.995502      0.00      39.9480
    71    1   Ar        17.533835   17.892199    5.940305      0.00      39.9480
    72    1   Ar        15.307592   22.736555    0.242119      0.00      39.9480
    73    1   Ar        -5.293243    4.100735    1.657335      0.00      39.9480
    74    1   Ar         1.805594    5.020163    0.927767      0.00      39.9480
    75    1   Ar        -1.694106    1.388012    8.059442      0.00      39.9480
    76    1   Ar         9.459200   -0.562175   11.240476      0.00      39.9480
    77    1   Ar         7.306786    5.259753    7.589111      0.00      39.9480
    78    1   Ar        16.841020   -4.369705   10.793712      0.00      39.9480
    79    1   Ar        -1.620775   12.700956    8.542612      0.00      39.9480
    80    1   Ar         3.359539    5.553440    7.789731      0.00      39.9480
    81    1   Ar         1.802223    1.150910    4.438849      0.00      39.9480
    82    1   Ar        12.722467    5.775449    1.370930      0.00      39.9480
    83    1   Ar        18.877254    3.861597   10.055557      0.00      39.9480
    84    1   Ar         8.240768   -6.924279    5.473983      0.00      39.9480
    85    1   Ar         0.715426   12.758270   -3.074821      0.00      39.9480
    86    1   Ar        -3.635290    6.132435    7.471430      0.00      39.9480
    87    1   Ar        10.738412    3.025633    2.897147      0.00      39.9480
    88    1   Ar         5.332583    2.949876    4.894275      0.00      39.9480
    89    1   Ar         9.465660    6.439287    1.166275      0.00      39.9480
    90    1   Ar        20.440648   11.828969   -0.356219      0.00      39.9480
    91    1   Ar         0.471204   12.326098    2.380983      0.00      39.9480
    92    1   Ar         0.175674   11.431766    5.662569      0.00      39.9480
    93    1   Ar        12.226694    5.976313   11.074914      0.00      39.9480
    94    1   Ar         5.413148    7.818202    5.523542      0.00      39.9480
    95    1   Ar        15.999134   18.846198   17.867294      0.00      39.9480
    96    1   Ar         7.125138   11.741570   -5.714819      0.00      39.9480
    97    1   Ar        -4.871316   22.773224   10.606990      0.00      39.9480
    98    1   Ar        -2.652022    9.536815    7.369372      0.00      39.9480
    99    1   Ar        -0.758050   15.756444   11.541998      0.00      39.9480
   100    1   Ar        20.296209   15.394053    1.610792      0.00      39.9480
   101    1   Ar        10.802582   22.157396   14.850733      0.00      39.9480
   102    1   Ar        21.657425    7.633186    3.715718      0.00      39.9480
   103    1   Ar        -0.044362   19.124070   10.593376      0.00      39.9480
   104    1   Ar        -0.178982   26.419018    6.957790      0.00      39.9480
   105    1   Ar        11.626109   15.767633    4.017467      0.00      39.9480
   106    1   Ar         7.258670   20.587302   16.371883      0.00      39.9480
   107    1   Ar         9.709970   16.983381   10.625929      0.00      39.9480
   108    1   Ar        19.316550   14.313642    5.184533      0.00      39.9480
   109    1   Ar        12.753566    1.645814   10.436292      0.00      39.9480
   110    1   Ar         3.093092   -1.496895   11.104494      0.00      39.9480
   111    1   Ar        12.439603   -2.311089   12.379920      0.00      39.9480
   112    1   Ar         9.293529   -0.329140   22.260393      0.00      39.9480
   113    1   Ar        14.444155    1.521675   18.445558      0.00      39.9480
   114    1   Ar         5.489278   -4.838488    4.157335      0.00      39.9480
   115    1   Ar        -4.082986    3.112297    4.931636      0.00      39.9480
   116    1   Ar         6.775204    0.623683   13.068008      0.00      39.9480
   117    1   Ar         1.043636    4.864067   10.786726      0.00      39.9480
   118    1   Ar         9.427251    3.389677    9.513603      0.00      39.9480
   119    1   Ar        17.277551   -1.966019   13.402657      0.00      39.9480
   120    1   Ar        11.944982    0.691749    7.031695      0.00      39.9480
   121    1   Ar        -3.148768    5.397302   13.326906      0.00      39.9480
   122    1   Ar        16.632749    3.574267   16.003537      0.00      39.9480
   123    1   Ar         8.853344   -3.296981    5.905091      0.00      39.9480
   124    1   Ar         8.962557    5.852069    4.560632      0.00      39.9480
   125    1   Ar        20.578877    4.982982   16.602117      0.00      39.9480
   126    1   Ar        11.841510    4.331581    6.834775      0.00      39.9480
   127    1   Ar        -4.249716   10.293713   11.016989      0.00      39.9480
   128    1   Ar         9.450581   13.347919   18.631581      0.00      39.9480
   129    1   Ar         6.026496   15.691494   11.611854      0.00      39.9480
   130    1   Ar        16.688126   15.859076    2.642858      0.00      39.9480
   131    1   Ar        11.398249    7.983231    8.323361      0.00      39.9480
   132    1   Ar        14.554082   13.178935   11.210862      0.00      39.9480
   133    1   Ar        -4.286087   15.137450    7.921285      0.00      39.9480
   134    1   Ar         2.487337   13.417969   10.624682      0.00      39.9480
   135    1   Ar         2.456457   14.270150    6.596373      0.00      39.9480
   136    1   Ar         9.469473   11.386906    9.917676      0.00      39.9480
   137    1   Ar        13.302601   17.108961   10.190784      0.00      39.9480
   138    1   Ar        18.184016   16.277439   14.563924      0.00      39.9480
   139    1   Ar         2.793681   16.590468   13.155040      0.00      39.9480
   140    1   Ar         6.175837   15.472821   16.497317      0.00      39.9480
   141    1   Ar        -1.657331   29.445473   11.027668      0.00      39.9480
   142    1   Ar         8.697475   10.206446    6.456199      0.00      39.9480
   143    1   Ar        22.302229   23.216453   11.235574      0.00      39.9480
   144    1   Ar        14.851008   20.008627    9.215985      0.00      39.9480
   145    1   Ar         2.220216    7.425881   16.759558      0.00      39.9480
   146    1   Ar         4.012375    6.666682   11.877503      0.00      39.9480
   147    1   Ar         0.517354    5.744878   19.776143      0.00      39.9480
   148    1   Ar        12.331859    2.509155   21.658794      0.00      39.9480
   149    1   Ar        21.671021    1.857427   19.200551      0.00      39.9480
   150    1   Ar        14.958836    3.866930   12.096916      0.00      39.9480
   151    1   Ar         1.745913    4.497915   14.261646      0.00      39.9480
   152    1   Ar         7.985324    4.829324   19.522682      0.00      39.9480
   153    1   Ar        10.753118    3.330382   12.746626      0.00      39.9480
   154    1   Ar        11.686599    5.612732   19.527599      0.00      39.9480
   155    1   Ar        20.120183   -3.396049   18.252240      0.00      39.9480
   156    1   Ar        16.419547    6.722515   10.292389      0.00      39.9480
   157    1   Ar        -7.536103   10.490771   22.780798      0.00      39.9480
   158    1   Ar         4.986348    9.292658   22.141476      0.00      39.9480
   159    1   Ar        10.663720   14.263934    7.894781      0.00      39.9480
   160    1   Ar        11.810292    7.498953   15.986296      0.00      39.9480
   161    1   Ar        15.157480    3.810645    8.139665      0.00      39.9480
   162    1   Ar        26.529291    9.413367   14.250574      0.00      39.9480
   163    1   Ar        14.120385    9.232850   10.245510      0.00      39.9480
   164    1   Ar        -0.227271    7.440619   14.039343      0.00      39.9480
   165    1   Ar         9.203627    4.312093   16.056657      0.00      39.9480
   166    1   Ar        14.315744   11.550670   26.285896      0.00      39.9480
   167    1   Ar        14.654602    7.953767   13.498209      0.00      39.9480
   168    1   Ar        15.539925    9.396056   16.570000      0.00      39.9480
   169    1   Ar         6.689790   11.207130   19.749739      0.00      39.9480
   170    1   Ar         3.247039   10.145991   11.047745      0.00      39.9480
   171    1   Ar         5.132456    5.054876   15.242038      0.00      39.9480
   172    1   Ar        10.265912   11.902131    3.624290      0.00      39.9480
   173    1   Ar        16.487418   13.048382   14.630551      0.00      39.9480
   174    1   Ar        21.403083   17.968622   14.270784      0.00      39.9480
   175    1   Ar         6.682780   14.926218   19.897794      0.00      39.9480
   176    1   Ar         6.369461   12.273429   12.041409      0.00      39.9480
   177    1   Ar         6.757770   19.039456    9.205716      0.00      39.9480
   178    1   Ar        16.736312   18.581749   21.375389      0.00      39.9480
   179    1   Ar        25.072046   22.809658   14.488697      0.00      39.9480
   180    1   Ar        18.932545   23.488415   13.310782      0.00      39.9480
   181    1   Ar        14.426424   -5.141161   13.843776      0.00      39.9480
   182    1   Ar        -3.520255  -10.490212   24.866354      0.00      39.9480
   183    1   Ar         6.524415    9.100170   10.240868      0.00      39.9480
   184    1   Ar        13.730216   -1.657226   15.771945      0.00      39.9480
   185    1   Ar        20.818247   -0.568387   15.242112      0.00      39.9480
   186    1   Ar        18.966875    9.824452   14.606511      0.00      39.9480
   187    1   Ar        -7.247248    4.935667   26.552491      0.00      39.9480
   188    1   Ar         3.964916   -1.157460   21.848930      0.00      39.9480
   189    1   Ar         6.366079    2.215251   17.291991      0.00      39.9480
   190    1   Ar        10.694659   10.600766   16.629518      0.00      39.9480
   191    1   Ar        24.023698   -6.226156   16.885891      0.00      39.9480
   192    1   Ar        24.755704   -2.262536   24.999333      0.00      39.9480
   193    1   Ar        -0.708810    9.320895   18.151842      0.00      39.9480
   194    1   Ar         1.713248    8.874487   22.754611      0.00      39.9480
   195    1   Ar        12.998922   10.822497   14.074021      0.00      39.9480
   196    1   Ar        12.887211   -1.553680   20.582000      0.00      39.9480
   197    1   Ar        13.171625   12.202349   18.671399      0.00      39.9480
   198    1   Ar        17.083615    9.708316   20.711747      0.00      39.9480
   199    1   Ar         3.300581   13.324737   14.001319      0.00      39.9480
   200    1   Ar         3.267139   -2.558782   15.658034      0.00      39.9480
   201    1   Ar         0.653054   10.579532   14.954367      0.00      39.9480
   202    1   Ar         8.266244    8.468776   14.817967      0.00      39.9480
   203    1   Ar         7.740247    9.630755   24.505248      0.00      39.9480
   204    1   Ar        18.167116   13.645433   11.594813      0.00      39.9480
   205    1   Ar        -4.253464    6.962015   18.358821      0.00      39.9480
   206    1   Ar         3.837862   11.689112   17.718492      0.00      39.9480
   207    1   Ar        12.911567   17.111622   17.698156      0.00      39.9480
   208    1   Ar        11.294395   14.166324   11.892448      0.00      39.9480
   209    1   Ar        17.058245   13.001506   21.778736      0.00      39.9480
   210    1   Ar        20.087019   18.763033   22.178416      0.00      39.9480
   211    1   Ar        10.077460   23.867918   18.659207      0.00      39.9480
   212    1   Ar        -3.811619   25.208182   19.105953      0.00      39.9480
   213    1   Ar        16.251859   15.185179   17.583324      0.00      39.9480
   214    1   Ar         7.364788   19.040296   20.633394      0.00      39.9480
   215    1   Ar        10.699182   11.074339    0.296992      0.00      39.9480
   216    1   Ar        32.503025   20.037518   18.064470      0.00      39.9480


 
 MD| Molecular Dynamics Protocol 
 MD| Ensemble Type                                                           NVT
 MD| Number of Time Steps                                                     10
 MD| Time Step [fs]                                                         1.00
 MD| Temperature [K]                                                       94.40
 MD| Temperature tolerance [K]                                              0.00
 MD| Print MD information every                                        1 step(s)
 MD| File type     Print frequency[steps]                             File names
 MD| Coordinates            2                                    argon-pos-1.xyz
 MD| Velocities             2                                    argon-vel-1.xyz
 MD| Energies               1                                       argon-1.ener
 MD| Dump                  20                                    argon-1.restart
 
 ROT| Rotational Analysis Info 
 ROT| Principal axes and moments of inertia in atomic units:
 ROT|                                1                 2                 3
 ROT| EIGENVALUES            0.669109329E+10   0.687267232E+10   0.708818060E+10
 ROT|      X                     0.966529879      -0.252123644      -0.047472744
 ROT|      Y                     0.155418027       0.428181161       0.890228134
 ROT|      Z                    -0.204120627      -0.867810211       0.453034445
 ROT| Numer of Rotovibrational vectors:     6

 Calculation of degrees of freedom
                                                      Number of atoms:       216
                                 Number of Intramolecular constraints:         0
                                 Number of Intermolecular constraints:         0
                                  Invariants(translation + rotations):         3
                                                   Degrees of freedom:       645


 Restraints Information
                                  Number of Intramolecular restraints:         0
                                  Number of Intermolecular restraints:         0

 THERMOSTAT| Thermostat Info for PARTICLES
 THERMOSTAT| Type of thermostat                               Nose-Hoover-Chains
 THERMOSTAT| Nose-Hoover-Chain length                                          1
 THERMOSTAT| Nose-Hoover-Chain time constant [  fs]                        20.00
 THERMOSTAT| Order of Yoshida integrator                                       3
 THERMOSTAT| Number of multiple time steps                                     2
 THERMOSTAT| Initial Potential Energy                                   0.000000
 THERMOSTAT| Initial Kinetic Energy                                     0.000149
 THERMOSTAT| End of Thermostat Info for PARTICLES


 COLOR-DIFFUSION | NE Info for MD
 COLOR-DIFFUSION | Type of algorithm                                const.F-CCD
 Atom                                                               Color charge

     1                                                              -1.000000000
     2                                                               1.000000000
     3                                                              -1.000000000
     4                                                               1.000000000
     5                                                              -1.000000000
     6                                                               1.000000000
     7                                                              -1.000000000
     8                                                               1.000000000
     9                                                              -1.000000000
    10                                                               1.000000000
    11                                                              -1.000000000
    12                                                               1.000000000
    13                                                              -1.000000000
    14                                                               1.000000000
    15                                                              -1.000000000
    16                                                               1.000000000
    17                                                              -1.000000000
    18                                                               1.000000000
    19                                                              -1.000000000
    20                                                               1.000000000
    21                                                              -1.000000000
    22                                                               1.000000000
    23                                                              -1.000000000
    24                                                               1.000000000
    25                                                              -1.000000000
    26                                                               1.000000000
    27                                                              -1.000000000
    28                                                               1.000000000
    29                                                              -1.000000000
    30                                                               1.000000000
    31                                                              -1.000000000
    32                                                               1.000000000
    33                                                              -1.000000000
    34                                                               1.000000000
    35                                                              -1.000000000
    36                                                               1.000000000
    37                                                              -1.000000000
    38                                                               1.000000000
    39                                                              -1.000000000
    40                                                               1.000000000
    41                                                              -1.000000000
    42                                                               1.000000000
    43                                                              -1.000000000
    44                                                               1.000000000
    45                                                              -1.000000000
    46                                                               1.000000000
    47                                                              -1.000000000
    48                                                               1.000000000
    49                                                              -1.000000000
    50                                                               1.000000000
    51                                                              -1.000000000
    52                                                               1.000000000
    53                                                              -1.000000000
    54                                                               1.000000000
    55                                                              -1.000000000
    56                                                               1.000000000
    57                                                              -1.000000000
    58                                                               1.000000000
    59                                                              -1.000000000
    60                                                               1.000000000
    61                                                              -1.000000000
    62                                                               1.000000000
    63                                                              -1.000000000
    64                                                               1.000000000
    65                                                              -1.000000000
    66                                                               1.000000000
    67                                                              -1.000000000
    68                                                               1.000000000
    69                                                              -1.000000000
    70                                                               1.000000000
    71                                                              -1.000000000
    72                                                               1.000000000
    73                                                              -1.000000000
    74                                                               1.000000000
    75                                                              -1.000000000
    76                                                               1.000000000
    77                                                              -1.000000000
    78                                                               1.000000000
    79                                                              -1.000000000
    80                                                               1.000000000
    81                                                              -1.000000000
    82                                                               1.000000000
    83                                                              -1.000000000
    84                                                               1.000000000
    85                                                              -1.000000000
    86                                                               1.000000000
    87                                                              -1.000000000
    88                                                               1.000000000
    89                                                              -1.000000000
    90                                                               1.000000000
    91                                                              -1.000000000
    92                                                               1.000000000
    93                                                              -1.000000000
    94                                                               1.000000000
    95                                                              -1.000000000
    96                                                               1.000000000
    97                                                              -1.000000000
    98                                                               1.000000000
    99                                                              -1.000000000
   100                                                               1.000000000
   101                                                              -1.000000000
   102                                                               1.000000000
   103                                                              -1.000000000
   104                                                               1.000000000
   105                                                              -1.000000000
   106                                                               1.000000000
   107                                                              -1.000000000
   108                                                               1.000000000
   109                                                              -1.000000000
   110                                                               1.000000000
   111                                                              -1.000000000
   112                                                               1.000000000
   113                                                              -1.000000000
   114                                                               1.000000000
   115                                                              -1.000000000
   116                                                               1.000000000
   117                                                              -1.000000000
   118                                                               1.000000000
   119                                                              -1.000000000
   120                                                               1.000000000
   121                                                              -1.000000000
   122                                                               1.000000000
   123                                                              -1.000000000
   124                                                               1.000000000
   125                                                              -1.000000000
   126                                                               1.000000000
   127                                                              -1.000000000
   128                                                               1.000000000
   129                                                              -1.000000000
   130                                                               1.000000000
   131                                                              -1.000000000
   132                                                               1.000000000
   133                                                              -1.000000000
   134                                                               1.000000000
   135                                                              -1.000000000
   136                                                               1.000000000
   137                                                              -1.000000000
   138                                                               1.000000000
   139                                                              -1.000000000
   140                                                               1.000000000
   141                                                              -1.000000000
   142                                                               1.000000000
   143                                                              -1.000000000
   144                                                               1.000000000
   145                                                              -1.000000000
   146                                                               1.000000000
   147                                                              -1.000000000
   148                                                               1.000000000
   149                                                              -1.000000000
   150                                                               1.000000000
   151                                                              -1.000000000
   152                                                               1.000000000
   153                                                              -1.000000000
   154                                                               1.000000000
   155                                                              -1.000000000
   156                                                               1.000000000
   157                                                              -1.000000000
   158                                                               1.000000000
   159                                                              -1.000000000
   160                                                               1.000000000
   161                                                              -1.000000000
   162                                                               1.000000000
   163                                                              -1.000000000
   164                                                               1.000000000
   165                                                              -1.000000000
   166                                                               1.000000000
   167                                                              -1.000000000
   168                                                               1.000000000
   169                                                              -1.000000000
   170                                                               1.000000000
   171                                                              -1.000000000
   172                                                               1.000000000
   173                                                              -1.000000000
   174                                                               1.000000000
   175                                                              -1.000000000
   176                                                               1.000000000
   177                                                              -1.000000000
   178                                                               1.000000000
   179                                                              -1.000000000
   180                                                               1.000000000
   181                                                              -1.000000000
   182                                                               1.000000000
   183                                                              -1.000000000
   184                                                               1.000000000
   185                                                              -1.000000000
   186                                                               1.000000000
   187                                                              -1.000000000
   188                                                               1.000000000
   189                                                              -1.000000000
   190                                                               1.000000000
   191                                                              -1.000000000
   192                                                               1.000000000
   193                                                              -1.000000000
   194                                                               1.000000000
   195                                                              -1.000000000
   196                                                               1.000000000
   197                                                              -1.000000000
   198                                                               1.000000000
   199                                                              -1.000000000
   200                                                               1.000000000
   201                                                              -1.000000000
   202                                                               1.000000000
   203                                                              -1.000000000
   204                                                               1.000000000
   205                                                              -1.000000000
   206                                                               1.000000000
   207                                                              -1.000000000
   208                                                               1.000000000
   209                                                              -1.000000000
   210                                                               1.000000000
   211                                                              -1.000000000
   212                                                               1.000000000
   213                                                              -1.000000000
   214                                                               1.000000000
   215                                                              -1.000000000
   216                                                               1.000000000



 ************************** Velocities initialization **************************
 Initial Temperature                                                     94.40 K
 COM velocity:            0.000000000000     -0.000000000000     -0.000000000000
 *******************************************************************************

 MM DIPOLE [BERRY PHASE](A.U.)|                   0.000000   0.000000   0.000000
 MM DIPOLE [BERRY PHASE](Debye)|                  0.000000   0.000000   0.000000
 MM DIPOLE [BERRY PHASE] DERIVATIVE(A.U.)|        0.000000   0.000000   0.000000

 ENERGY| Total FORCE_EVAL ( FIST ) energy (a.u.):             -0.437009713176723

 
 MD_ENERGIES| Initialization proceeding
 

 ******************************** GO CP2K GO! **********************************
 INITIAL POTENTIAL ENERGY[hartree]     =                     -0.437009713177E+00
 INITIAL KINETIC ENERGY[hartree]       =                      0.964105263110E-01
 INITIAL TEMPERATURE[K]                =                                  94.400
 INITIAL VOLUME[bohr^3]                =                      0.703732690594E+05
 INITIAL CELL LNTHS[bohr]   =      0.4128598E+02   0.4128598E+02   0.4128598E+02
 INITIAL CELL ANGLS[deg]    =      0.9000000E+02   0.9000000E+02   0.9000000E+02
 ******************************** GO CP2K GO! **********************************
 MM DIPOLE [BERRY PHASE](A.U.)|                   0.000000   0.000000   0.000000
 MM DIPOLE [BERRY PHASE](Debye)|                  0.000000   0.000000   0.000000
 MM DIPOLE [BERRY PHASE] DERIVATIVE(A.U.)|        0.000000   0.000000   0.000000

 ENERGY| Total FORCE_EVAL ( FIST ) energy (a.u.):             -0.437024050712083


 Centre of mass motion (COM):                            x =        0.0000000000
                                                         y =       -0.0000000000
                                                         z =       -0.0000000000

 *******************************************************************************
 ENSEMBLE TYPE                =                                              NVT
 STEP NUMBER                  =                                                1
 TIME [fs]                    =                                         1.000000
 CONSERVED QUANTITY [hartree] =                              -0.340449153241E+00

                                              INSTANTANEOUS             AVERAGES
 CPU TIME [s]                 =                        0.05                 0.05
 ENERGY DRIFT PER ATOM [K]    =          0.818587559831E-03   0.000000000000E+00
 POTENTIAL ENERGY[hartree]    =         -0.437024050712E+00  -0.437024050712E+00
 KINETIC ENERGY [hartree]     =          0.961441251268E-01   0.961441251268E-01
 TEMPERATURE [K]              =                      94.139               94.139
 *******************************************************************************

 MM DIPOLE [BERRY PHASE](A.U.)|                   0.000000   0.000000   0.000000
 MM DIPOLE [BERRY PHASE](Debye)|                  0.000000   0.000000   0.000000
 MM DIPOLE [BERRY PHASE] DERIVATIVE(A.U.)|        0.000000   0.000000   0.000000

 ENERGY| Total FORCE_EVAL ( FIST ) energy (a.u.):             -0.437036483558116


 Centre of mass motion (COM):                            x =        0.0000000000
                                                         y =       -0.0000000000
                                                         z =       -0.0000000000

 *******************************************************************************
 ENSEMBLE TYPE                =                                              NVT
 STEP NUMBER                  =                                                2
 TIME [fs]                    =                                         2.000000
 CONSERVED QUANTITY [hartree] =                              -0.340448573193E+00

                                              INSTANTANEOUS             AVERAGES
 CPU TIME [s]                 =                        0.00                 0.03
 ENERGY DRIFT PER ATOM [K]    =          0.166657206477E-02   0.833286032385E-03
 POTENTIAL ENERGY[hartree]    =         -0.437036483558E+00  -0.437030267135E+00
 KINETIC ENERGY [hartree]     =          0.958961148346E-01   0.960201199807E-01
 TEMPERATURE [K]              =                      93.896               94.018
 *******************************************************************************

 MM DIPOLE [BERRY PHASE](A.U.)|                   0.000000   0.000000   0.000000
 MM DIPOLE [BERRY PHASE](Debye)|                  0.000000   0.000000   0.000000
 MM DIPOLE [BERRY PHASE] DERIVATIVE(A.U.)|        0.000000   0.000000   0.000000

 ENERGY| Total FORCE_EVAL ( FIST ) energy (a.u.):             -0.437047052742614


 Centre of mass motion (COM):                            x =        0.0000000000
                                                         y =       -0.0000000000
                                                         z =       -0.0000000000

 *******************************************************************************
 ENSEMBLE TYPE                =                                              NVT
 STEP NUMBER                  =                                                3
 TIME [fs]                    =                                         3.000000
 CONSERVED QUANTITY [hartree] =                              -0.340447981165E+00

                                              INSTANTANEOUS             AVERAGES
 CPU TIME [s]                 =                        0.01                 0.02
 ENERGY DRIFT PER ATOM [K]    =          0.253206886419E-02   0.139954697632E-02
 POTENTIAL ENERGY[hartree]    =         -0.437047052743E+00  -0.437035862338E+00
 KINETIC ENERGY [hartree]     =          0.956674199692E-01   0.959025533102E-01
 TEMPERATURE [K]              =                      93.672               93.903
 *******************************************************************************

 MM DIPOLE [BERRY PHASE](A.U.)|                   0.000000   0.000000   0.000000
 MM DIPOLE [BERRY PHASE](Debye)|                  0.000000   0.000000   0.000000
 MM DIPOLE [BERRY PHASE] DERIVATIVE(A.U.)|        0.000000   0.000000   0.000000

 ENERGY| Total FORCE_EVAL ( FIST ) energy (a.u.):             -0.437055784910551


 Centre of mass motion (COM):                            x =        0.0000000000
                                                         y =       -0.0000000000
                                                         z =       -0.0000000000

 *******************************************************************************
 ENSEMBLE TYPE                =                                              NVT
 STEP NUMBER                  =                                                4
 TIME [fs]                    =                                         4.000000
 CONSERVED QUANTITY [hartree] =                              -0.340447368135E+00

                                              INSTANTANEOUS             AVERAGES
 CPU TIME [s]                 =                        0.00                 0.02
 ENERGY DRIFT PER ATOM [K]    =          0.342827019113E-02   0.190672778002E-02
 POTENTIAL ENERGY[hartree]    =         -0.437055784911E+00  -0.437040842981E+00
 KINETIC ENERGY [hartree]     =          0.954588784267E-01   0.957916345893E-01
 TEMPERATURE [K]              =                      93.468               93.794
 *******************************************************************************

 MM DIPOLE [BERRY PHASE](A.U.)|                   0.000000   0.000000   0.000000
 MM DIPOLE [BERRY PHASE](Debye)|                  0.000000   0.000000   0.000000
 MM DIPOLE [BERRY PHASE] DERIVATIVE(A.U.)|        0.000000   0.000000   0.000000

 ENERGY| Total FORCE_EVAL ( FIST ) energy (a.u.):             -0.437062733079118


 Centre of mass motion (COM):                            x =        0.0000000000
                                                         y =       -0.0000000000
                                                         z =        0.0000000000

 *******************************************************************************
 ENSEMBLE TYPE                =                                              NVT
 STEP NUMBER                  =                                                5
 TIME [fs]                    =                                         5.000000
 CONSERVED QUANTITY [hartree] =                              -0.340446736576E+00

                                              INSTANTANEOUS             AVERAGES
 CPU TIME [s]                 =                        0.01                 0.01
 ENERGY DRIFT PER ATOM [K]    =          0.435155766850E-02   0.239569375772E-02
 POTENTIAL ENERGY[hartree]    =         -0.437062733079E+00  -0.437045221000E+00
 KINETIC ENERGY [hartree]     =          0.952712547428E-01   0.956875586200E-01
 TEMPERATURE [K]              =                      93.284               93.692
 *******************************************************************************

 MM DIPOLE [BERRY PHASE](A.U.)|                   0.000000   0.000000   0.000000
 MM DIPOLE [BERRY PHASE](Debye)|                  0.000000   0.000000   0.000000
 MM DIPOLE [BERRY PHASE] DERIVATIVE(A.U.)|        0.000000   0.000000   0.000000

 ENERGY| Total FORCE_EVAL ( FIST ) energy (a.u.):             -0.437067944956591


 Centre of mass motion (COM):                            x =        0.0000000000
                                                         y =       -0.0000000000
                                                         z =       -0.0000000000

 *******************************************************************************
 ENSEMBLE TYPE                =                                              NVT
 STEP NUMBER                  =                                                6
 TIME [fs]                    =                                         6.000000
 CONSERVED QUANTITY [hartree] =                              -0.340446090488E+00

                                              INSTANTANEOUS             AVERAGES
 CPU TIME [s]                 =                        0.00                 0.01
 ENERGY DRIFT PER ATOM [K]    =          0.529608731999E-02   0.287909268476E-02
 POTENTIAL ENERGY[hartree]    =         -0.437067944957E+00  -0.437049008327E+00
 KINETIC ENERGY [hartree]     =          0.951052196730E-01   0.955905021289E-01
 TEMPERATURE [K]              =                      93.122               93.597
 *******************************************************************************

 MM DIPOLE [BERRY PHASE](A.U.)|                   0.000000   0.000000   0.000000
 MM DIPOLE [BERRY PHASE](Debye)|                  0.000000   0.000000   0.000000
 MM DIPOLE [BERRY PHASE] DERIVATIVE(A.U.)|        0.000000   0.000000   0.000000

 ENERGY| Total FORCE_EVAL ( FIST ) energy (a.u.):             -0.437071438964431


 Centre of mass motion (COM):                            x =        0.0000000000
                                                         y =       -0.0000000000
                                                         z =        0.0000000000

 *******************************************************************************
 ENSEMBLE TYPE                =                                              NVT
 STEP NUMBER                  =                                                7
 TIME [fs]                    =                                         7.000000
 CONSERVED QUANTITY [hartree] =                              -0.340445431239E+00

                                              INSTANTANEOUS             AVERAGES
 CPU TIME [s]                 =                        0.01                 0.01
 ENERGY DRIFT PER ATOM [K]    =          0.625985569443E-02   0.336205882900E-02
 POTENTIAL ENERGY[hartree]    =         -0.437071438964E+00  -0.437052212703E+00
 KINETIC ENERGY [hartree]     =          0.949613317032E-01   0.955006206395E-01
 TEMPERATURE [K]              =                      92.981               93.509
 *******************************************************************************

 MM DIPOLE [BERRY PHASE](A.U.)|                   0.000000   0.000000   0.000000
 MM DIPOLE [BERRY PHASE](Debye)|                  0.000000   0.000000   0.000000
 MM DIPOLE [BERRY PHASE] DERIVATIVE(A.U.)|        0.000000   0.000000   0.000000

 ENERGY| Total FORCE_EVAL ( FIST ) energy (a.u.):             -0.437073257274395


 Centre of mass motion (COM):                            x =        0.0000000000
                                                         y =       -0.0000000000
                                                         z =       -0.0000000000

 *******************************************************************************
 ENSEMBLE TYPE                =                                              NVT
 STEP NUMBER                  =                                                8
 TIME [fs]                    =                                         8.000000
 CONSERVED QUANTITY [hartree] =                              -0.340444758665E+00

                                              INSTANTANEOUS             AVERAGES
 CPU TIME [s]                 =                        0.00                 0.01
 ENERGY DRIFT PER ATOM [K]    =          0.724310476785E-02   0.384718957136E-02
 POTENTIAL ENERGY[hartree]    =         -0.437073257274E+00  -0.437054843275E+00
 KINETIC ENERGY [hartree]     =          0.948400903186E-01   0.954180543494E-01
 TEMPERATURE [K]              =                      92.862               93.428
 *******************************************************************************

 MM DIPOLE [BERRY PHASE](A.U.)|                   0.000000   0.000000   0.000000
 MM DIPOLE [BERRY PHASE](Debye)|                  0.000000   0.000000   0.000000
 MM DIPOLE [BERRY PHASE] DERIVATIVE(A.U.)|        0.000000   0.000000   0.000000

 ENERGY| Total FORCE_EVAL ( FIST ) energy (a.u.):             -0.437073436654317


 Centre of mass motion (COM):                            x =        0.0000000000
                                                         y =       -0.0000000000
                                                         z =        0.0000000000

 *******************************************************************************
 ENSEMBLE TYPE                =                                              NVT
 STEP NUMBER                  =                                                9
 TIME [fs]                    =                                         9.000000
 CONSERVED QUANTITY [hartree] =                              -0.340444066010E+00

                                              INSTANTANEOUS             AVERAGES
 CPU TIME [s]                 =                        0.01                 0.01
 ENERGY DRIFT PER ATOM [K]    =          0.825571107700E-02   0.433702529421E-02
 POTENTIAL ENERGY[hartree]    =         -0.437073436654E+00  -0.437056909206E+00
 KINETIC ENERGY [hartree]     =          0.947419130811E-01   0.953429275418E-01
 TEMPERATURE [K]              =                      92.766               93.355
 *******************************************************************************

 MM DIPOLE [BERRY PHASE](A.U.)|                   0.000000   0.000000   0.000000
 MM DIPOLE [BERRY PHASE](Debye)|                  0.000000   0.000000   0.000000
 MM DIPOLE [BERRY PHASE] DERIVATIVE(A.U.)|        0.000000   0.000000   0.000000

 ENERGY| Total FORCE_EVAL ( FIST ) energy (a.u.):             -0.437072026858732


 Centre of mass motion (COM):                            x =        0.0000000000
                                                         y =       -0.0000000000
                                                         z =       -0.0000000000

 *******************************************************************************
 ENSEMBLE TYPE                =                                              NVT
 STEP NUMBER                  =                                               10
 TIME [fs]                    =                                        10.000000
 CONSERVED QUANTITY [hartree] =                              -0.340443364265E+00

                                              INSTANTANEOUS             AVERAGES
 CPU TIME [s]                 =                        0.00                 0.01
 ENERGY DRIFT PER ATOM [K]    =          0.928160565214E-02   0.483148333000E-02
 POTENTIAL ENERGY[hartree]    =         -0.437072026859E+00  -0.437058420971E+00
 KINETIC ENERGY [hartree]     =          0.946671307342E-01   0.952753478610E-01
 TEMPERATURE [K]              =                      92.693               93.288
 *******************************************************************************


 -------------------------------------------------------------------------------
 -                                                                             -
 -                                DBCSR STATISTICS                             -
 -                                                                             -
 -------------------------------------------------------------------------------
 COUNTER                                    TOTAL       BLAS       SMM       ACC
 flops inhomo. stacks                           0       0.0%      0.0%      0.0%
 flops total                         0.000000E+00       0.0%      0.0%      0.0%
 flops max/rank                      0.000000E+00       0.0%      0.0%      0.0%
 matmuls inhomo. stacks                         0       0.0%      0.0%      0.0%
 matmuls total                                  0       0.0%      0.0%      0.0%
 number of processed stacks                     0       0.0%      0.0%      0.0%
 average stack size                                     0.0       0.0       0.0
 marketing flops                     0.000000E+00
 -------------------------------------------------------------------------------
 
 MEMORY| Estimated peak process memory [MiB]                                  98

 -------------------------------------------------------------------------------
 -                                                                             -
 -                         MESSAGE PASSING PERFORMANCE                         -
 -                                                                             -
 -------------------------------------------------------------------------------

 ROUTINE             CALLS      AVE VOLUME [Bytes]
 MP_Bcast               20                      5.
 MP_Allreduce          220                    739.
 -------------------------------------------------------------------------------


 -------------------------------------------------------------------------------
 -                                                                             -
 -                           R E F E R E N C E S                               -
 -                                                                             -
 -------------------------------------------------------------------------------
 
 CP2K version 6.1, the CP2K developers group (2018).
 CP2K is freely available from https://www.cp2k.org/ .

 Schuett, Ole; Messmer, Peter; Hutter, Juerg; VandeVondele, Joost. 
 Electronic Structure Calculations on Graphics Processing Units, John Wiley & Sons, Ltd, 173-190 (2016). 
 GPU-Accelerated Sparse Matrix-Matrix Multiplication for Linear Scaling Density Functional Theory.
 http://dx.doi.org/10.1002/9781118670712.ch8


 Borstnik, U; VandeVondele, J; Weber, V; Hutter, J. 
 PARALLEL COMPUTING, 40 (5-6), 47-58 (2014). 
 Sparse matrix multiplication: The distributed block-compressed sparse
 row library.
 http://dx.doi.org/10.1016/j.parco.2014.03.012


 Hutter, J; Iannuzzi, M; Schiffmann, F; VandeVondele, J. 
 WILEY INTERDISCIPLINARY REVIEWS-COMPUTATIONAL MOLECULAR SCIENCE, 4 (1), 15-25 (2014). 
 CP2K: atomistic simulations of condensed matter systems.
 http://dx.doi.org/10.1002/wcms.1159


 Frigo, M; Johnson, SG. 
 PROCEEDINGS OF THE IEEE, 93 (2), 216-231 (2005). 
 The design and implementation of FFTW3.
 http://dx.doi.org/10.1109/JPROC.2004.840301


 NOSE, S. JOURNAL OF CHEMICAL PHYSICS, 81 (1), 511-519 (1984). 
 A UNIFIED FORMULATION OF THE CONSTANT TEMPERATURE MOLECULAR-DYNAMICS
 METHODS.
 http://dx.doi.org/10.1063/1.447334


 NOSE, S. MOLECULAR PHYSICS, 52 (2), 255-268 (1984). 
 A MOLECULAR-DYNAMICS METHOD FOR SIMULATIONS IN THE CANONICAL ENSEMBLE.
 http://dx.doi.org/10.1080/00268978400101201


 -------------------------------------------------------------------------------
 -                                                                             -
 -                                T I M I N G                                  -
 -                                                                             -
 -------------------------------------------------------------------------------
 SUBROUTINE                       CALLS  ASD         SELF TIME        TOTAL TIME
                                MAXIMUM       AVERAGE  MAXIMUM  AVERAGE  MAXIMUM
 CP2K                                 1  1.0    0.004    0.004    0.120    0.120
 qs_mol_dyn_low                       1  2.0    0.003    0.003    0.109    0.109
 fist_calc_energy_force              11  3.9    0.029    0.029    0.048    0.048
 md_write_output                     11  3.9    0.024    0.024    0.045    0.045
 md_output                           10  3.0    0.000    0.000    0.036    0.036
 write_trajectory                    44  4.9    0.010    0.010    0.021    0.021
 velocity_verlet                     10  3.0    0.001    0.001    0.019    0.019
 force_nonbond                       11  4.9    0.015    0.015    0.015    0.015
 write_particle_coordinates          12  5.8    0.011    0.011    0.011    0.011
 fist_create_force_env                1  2.0    0.000    0.000    0.007    0.007
 fist_init                            1  3.0    0.000    0.000    0.007    0.007
 topology_control                     1  4.0    0.000    0.000    0.005    0.005
 rot_ana                              1  3.0    0.000    0.000    0.005    0.005
 diamat_all                           1  4.0    0.005    0.005    0.005    0.005
 write_restart                       10  4.0    0.005    0.005    0.005    0.005
 build_fist_neighbor_lists            2  6.5    0.000    0.000    0.005    0.005
 build_neighbor_lists                 2  7.5    0.004    0.004    0.004    0.004
 list_control                        11  4.9    0.000    0.000    0.004    0.004
 coordinate_control                   1  5.0    0.001    0.001    0.003    0.003
 coordinate_control_READ_COORDI       1  6.0    0.000    0.000    0.003    0.003
 read_coordinate_xyz                  1  7.0    0.002    0.002    0.003    0.003
 -------------------------------------------------------------------------------

 The number of warnings for this run is : 0
 
 -------------------------------------------------------------------------------
  **** **** ******  **  PROGRAM ENDED AT                 2022-12-23 19:41:58.989
 ***** ** ***  *** **   PROGRAM RAN ON                                    r4i6n7
 **    ****   ******    PROGRAM RAN BY                                   sasakir
 ***** **    ** ** **   PROGRAM PROCESS ID                                129284
  **** **  *******  **  PROGRAM STOPPED IN /home/sasakir/apl/cp2kv6/cp2kccd/test
                                           _nemd/Argon_cd
