    1536
 i =        0, time =        0.000, E =      -799.2309820910
 La         1.7377131422        0.2170388955        3.1005899985
 La        11.3835358705        0.0121336384        9.6888398460
 La         4.7479816189       -0.0344472464        9.8972317013
 La         8.0714059498       -0.0478540823        3.2282643778
 La        11.3134605542        6.5155495172        3.1046231947
 La         1.5373572830        6.7637763541        9.7776710804
 La         7.9591933766        6.4505302674        9.7333273921
 La         4.9917553106        6.4273775350        3.1395805673
 La         3.0331725083        1.4210363435       -0.1871309171
 La         9.6096827232       11.0355455459        0.0030277862
 La         9.7254725800        4.8989344277       -0.2124901658
 La         2.9914936960        8.0536714556        0.1859937038
 La         3.0963278983       11.2000550687        6.5177206690
 La         9.8122925788        1.7231415278        6.4530457669
 La         9.5686788011        8.0886093931        6.4026878929
 La         3.1595812067        4.9715377883        6.5436365306
 La        -0.2816058790        3.1539932629        1.6118346208
 La         0.2651778341        9.8292771679       11.4251804416
 La        -0.0177503538        9.6853342848        4.8767683289
 La        -0.3492826034        3.1757909542        7.8287417032
 La         6.3693332056        3.1927859791       11.3475673761
 La         6.5692898473       10.0006505418        1.6963075365
 La         6.3879176799        9.6793231898        8.0518389946
 La         6.4221803313        3.2251488202        4.8519546198
 Zr        -0.3063740237       -0.0303013064        0.1210469029
 Zr         6.3466601098       -0.0295535420        6.4192092693
 Zr        -0.0922235646        6.4842060154        6.5772968848
 Zr         6.4506165418        6.6051814781       -0.1366804357
 Zr         9.8216074392        3.3545996016        3.0970240231
 Zr         3.5325310582        9.7359354590        9.8162761870
 Zr         9.7692359385        9.6155304367        9.7808558555
 Zr         3.2200200167        3.3825072613        3.0002849634
 Zr         2.9533566885        3.1680746469        9.7975175519
 Zr         9.7700367024        9.8266153515        3.4014602264
 Zr         3.3511998102       10.0345336387        3.2436575475
 Zr         9.6338264102        3.1312095514        9.7868067348
 Zr         6.5310023850        6.1963198893        6.5242209768
 Zr        -0.0947099531        6.2580308014       -0.1086432394
 Zr         6.5715020075       -0.0641803707       -0.1043951892
 Zr        -0.2706321625       -0.1248992756        6.3320641413
  O        12.6097837366        0.6876313073        1.8885154818
  O         0.4991681848       12.0857221668       11.1505114413
  O         7.0677883412       12.2169049087        8.6681833453
  O         6.0538742038        0.7533807915        4.5250284092
  O         0.0566020174        7.3065203165        4.4765742965
  O        12.6845428424        5.7408698195        8.4987030369
  O         6.0340254097        5.5723214265       11.2290859350
  O         6.9263108771        7.3026201162        1.8905827705
  O         1.8334645048       12.5679364640        0.8809066536
  O        10.9314586097        0.2428074609       12.1843072622
  O         8.4146708554        7.1240760391       12.4713125059
  O         4.5963183719        6.1875285922        0.9212716425
  O         4.4342295576        0.5136136619        6.9570617289
  O         8.4572849453       12.7143565659        5.9686448005
  O        11.2289479780        5.9736703426        5.5496845182
  O         1.8961749852        6.6917534638        7.2497470240
  O         0.5937702102        1.8651701401       12.7277636218
  O        11.9476666095       11.2727180788        0.3076574182
  O        12.6147484112        8.4313553461        6.9658811963
  O         0.3678084171        4.4514788509        5.8936628933
  O         7.0656465986        4.4809583024        0.3871014683
  O         5.6358325174        8.1194886502       12.7245770275
  O         5.8791033485       11.0909088997        6.1778533915
  O         7.3739637035        1.9977204458        6.6861901314
  O        10.4668610866        2.9917023307        0.9619758523
  O         2.7885990961       10.2032037052       11.9143200746
  O         8.9440536355       10.2048419594        7.8140943735
  O         3.5345315670        2.9813874086        5.1481797352
  O         3.6680284884        3.4491621550       11.7256468295
  O         9.0894448899        9.3852787304        1.5216541340
  O         2.4127311258        9.2422827641        5.2754841897
  O        10.4126682048        3.6215372533        7.9529329859
  O         9.2202753695        5.4206408354        2.2323655983
  O         3.6807785686        7.8546030522       10.6161548888
  O         3.6559018590       11.7758525367        4.1746430874
  O         9.2574609461        1.1538955877        9.0048661153
  O         9.9648583212        7.5991237223        8.7897800355
  O         2.8447890439        5.4063500941        3.9671157091
  O         2.6774060606        1.0851933556       10.5286699277
  O        10.0345685244       11.7765625158        2.9414734110
  O        11.7312571697        3.9858399188        3.4727123176
  O         1.1969009699        9.1227383884        9.4279441741
  O         4.8390461066        2.4248314489        9.0186989377
  O         7.6389407241       10.8178463074        3.7424363242
  O         1.2408385856       10.6766532202        2.8785173169
  O        11.6934009299        2.4585832754       10.0785598467
  O         7.7520385826        8.8766160428       10.1196150118
  O         5.2049669916        3.6825475167        2.7884978184
  O         5.8576411924        7.1679041086        8.6731089234
  O         6.6888967471        5.6579961306        4.6130102146
  O         0.2994360119        5.6677361378        1.8774487176
  O        12.4099331721        7.0840877805       11.0651501728
  O         6.7161077786        0.6046097600       11.0472075755
  O         6.1540580129       12.4420069644        1.9432482148
  O        12.5853180621       12.4516364591        4.2660240384
  O         0.3753705504        0.5453213954        8.3545115874
  O         8.4035989048        5.8075635204        7.3188805857
  O         4.6206870465        6.8318955013        5.8391145073
  O         2.1099129415        0.3131675002        5.5795613096
  O        11.2350167204       12.5853811224        7.5974242243
  O        11.0511795436        6.9256557566        0.2502543350
  O         2.0421671693        6.1348486367       12.4916821729
  O         4.5013160679       12.6080782035       12.6345545870
  O         8.5045806691        0.1781913608        0.8624991377
  O         7.1560959279        8.1605906369        6.3162448356
  O         5.7529935965        4.3419323243        6.7622666211
  O         6.0002742730        1.8438358930        0.1447541272
  O         7.0962962289       10.8424715653       12.5795379586
  O         0.6808048530       11.1282704587        6.8552605862
  O        12.3060370718        1.7805051608        6.0985230837
  O        12.0880476312        4.4477291265       12.3796355419
  O         0.6891515738        8.5536749312        0.5014771913
  O         4.0465406690        9.3219314651        7.7111704632
  O         9.2967285237        3.6010897582        5.2052971084
  O         2.5716687641        3.3749534857        1.0685280103
  O        10.4656158929        9.4564338682       11.8950230935
  O        10.6555256180       10.1264132547        5.3654634770
  O         2.1860366818        2.7116139647        7.7144610903
  O         8.9109075310        2.6606582662       11.7184066949
  O         3.9542890644       10.1800623318        1.3517624094
  O         2.9346634257       11.5890639502        9.3754261028
  O        10.2933906707        1.3136226262        3.7129871039
  O         9.9104506453        5.1764373060       10.3243044109
  O         2.6278369239        7.9665695655        2.5064937779
  O         3.7142314465        1.2777072136        2.5909460807
  O         9.2727059183       11.8376730167       10.5352562892
  O         9.2017491445        8.1139519269        4.2006007624
  O         3.6746081088        5.0939800951        8.9955376607
  O         5.3820994097       10.4332904355       10.0488119205
  O         7.8180913748        2.6577197566        2.6170909710
  O        11.8108234838        9.0097534816        2.7821890773
  O         1.1401541876        3.8785075839       10.4190860938
  O         7.4953875795        3.7243965710        9.3131184134
  O         5.3165163049        9.1325446158        3.9508735328
  O         1.2501020457        2.9219194991        3.5841575410
  O        11.7205935541       10.1248528865        9.4085451547
 Li        -0.5846816551       -4.7084862858        8.7725669876
 Li         8.8551753631       -0.7357889518        7.8096565039
 Li         0.7381390877       -2.0973510846        8.8340812630
 Li         5.2768998479       -2.4662297660       12.2388222197
 Li        12.1125445176        4.3123273215       -2.3066104883
 Li        11.9914827986        7.6659725369        9.0153091534
 Li        -1.2381947420       10.3625764999        7.5041752210
 Li         2.3578358313       -0.9099838531       -2.0607072052
 Li         8.9955105828        5.5072132497       -8.0951986687
 Li         5.7164550459       11.1185315059        4.3561264240
 Li        11.9215052458        5.4298704254       10.4528366528
 Li        -1.3414242090       -2.5999749423        7.3275244496
 Li        -3.1888920871        5.2564234449        7.2498797499
 Li         1.9100723263        6.2456078109        2.3667767065
 Li         5.5841594377       -4.5799548963       10.7963455994
 Li         8.2312138383       10.9816372627        6.1772361932
 Li         7.7793470228        9.1025517802       12.1708176078
 Li         4.0411413447        7.4498789192        7.4252049503
 Li        11.7156803001        3.7394620715        5.2904952518
 Li        14.1588426880       -2.7156760792       14.3940496853
 Li         1.2743861122       10.5777935854        0.9479810807
 Li         1.4003129311        8.8923129684        7.4161172245
 Li         9.8840673981        4.8008416389        6.2558376123
 Li         6.5600656481        2.2448495352        8.4721066933
 Li         4.7231488460       13.0503313785        3.2459645417
 Li         1.0229243948        4.9984451525        4.0881170238
 Li        14.6032999806        8.6422951848        7.3699192468
 Li        16.5429684665        7.5543005508        7.1415164797
 Li        -2.2490664467       -7.3156813160        8.2711718486
 Li         3.8313119117        1.2327976290        5.1219085281
 Li         7.0082816607        9.1593038194        4.8105815645
 Li         7.2850639175        8.9719449736       -1.3483296701
 Li         4.7510658120        6.4981783274        9.9301386452
 Li         7.4846050823       14.9076013397        8.8220187272
 Li         2.5476851612       12.0493294299       11.5980282798
 Li        14.0580850430       11.8214326672        9.3468755074
 Li        12.8608245130        9.9091092802        8.0261721364
 Li         0.6697650364        3.2867263501       -1.4366478138
 Li         2.3452316330        7.5768619004        4.4769457049
 Li        14.9913751956        1.1444043401        9.1220741363
 Li         0.4378813831       11.2619639862        8.8490817069
 Li         5.7089287842        8.2902861024       10.8902022873
 Li         5.7231385011       -2.2286256171        4.3529624058
 Li        -1.8136240507        4.1397354092        5.6312909649
 Li        -3.3835887477        1.7070936290       12.8814669214
 Li        11.0002305121        4.0750173101       -7.1237732003
 Li         5.9261706686        2.0649504044        2.1445506378
 Li         7.7119491189        3.8744386700        7.3325789060
 Li         8.7125812866        7.5856458426        1.5827034123
 Li         4.7470912753        8.6008058019        5.6180905114
 Li        11.0685235599        2.4663225820       12.3589738379
 Li        10.9413940177       10.7758168148        7.1679329552
 Li         3.0763640324        4.7965491135       -0.2123570780
 Li         7.3683341700        4.5108916186        2.2757743609
 Li        -2.6903244596       11.9179365244        4.9222769153
 Li         4.3991829932       -0.9318172011        1.5679413774
 La        14.6134613677       -0.2316599486        3.4590070720
 La        24.5728775006        0.0400983115        9.7595998719
 La        18.0069660631       -0.1352407369        9.7680182856
 La        21.1567520153       -0.0225338065        3.1751143788
 La        24.5995968211        6.3273292515        3.4271577107
 La        14.8085871080        6.3085059819        9.8051858311
 La        21.2007479901        6.4748750564        9.6900513904
 La        17.9193668288        6.4904452521        3.2174609654
 La        16.1954029519        1.6232565249        0.0649714576
 La        23.0158374855       11.4450021903        0.0460119723
 La        22.7918344538        4.7995567700       -0.1409785952
 La        16.1662242565        8.2893529892       -0.0072558695
 La        16.3839910346       11.4500191252        6.5526412618
 La        22.8209114353        1.6183323420        6.5670009409
 La        23.0141096533        8.1087327469        6.5682007891
 La        16.4189774063        4.8610965351        6.4109682865
 La        12.9598642531        3.1247913168        1.2881771722
 La        13.0384685548        9.6359254739       11.4001483364
 La        12.9305025613        9.8553175183        4.9759465647
 La        12.9075645577        3.4038074561        8.3392621086
 La        19.7979120624        3.0412451354       11.8288454875
 La        19.6367339751        9.7691039772        1.6995052061
 La        19.5866743025        9.7014543158        7.9658688031
 La        19.5817797111        3.1562432636        4.6350738990
 Zr        13.0100205172       -0.2412362678       -0.0218829124
 Zr        19.5420688227        0.0438515707        6.4426380765
 Zr        13.0436177276        6.4166741111        6.2916293737
 Zr        19.4201130323        6.3649893923       -0.1076312504
 Zr        22.6664619660        3.1577245788        3.1932335054
 Zr        16.4252976618        9.7167199208        9.7807767539
 Zr        22.7867493605        9.7502919916        9.7618335937
 Zr        16.0597060744        3.2215295458        3.2818406492
 Zr        16.3607689172        3.0974381860        9.9190091654
 Zr        22.9276245673        9.5904097658        3.2329945029
 Zr        16.2833530230        9.8726498578        3.1637860784
 Zr        22.9162708114        3.1744243914        9.6896313461
 Zr        19.6309470081        6.3885886356        6.4694296604
 Zr        13.1622089624        6.5017326145       -0.0386047259
 Zr        19.4830072196       -0.1199940254       -0.1343330737
 Zr        12.9983450772       -0.0903429739        6.5907096327
  O        25.9232358527        0.7912881447        2.1828687977
  O        13.5817910089       12.0839884060       10.9862551103
  O        20.1131452557       12.2947192895        8.4889313327
  O        19.1669453974        0.6321336676        4.3276051868
  O        13.3939390317        7.2762161139        4.4101677062
  O        25.6644665009        5.6193379748        8.3901972392
  O        19.3119826112        5.8206766540       11.0860846011
  O        20.0980970859        7.3521003603        2.1384954161
  O        14.7342507577       13.0203689481        0.5346098343
  O        24.2685289621        0.4262866943       12.2430260463
  O        21.7273653249        6.9506645352       12.2837611348
  O        17.5939784267        6.5103738085        0.5550604587
  O        17.6267056534        0.4193138086        7.2697077551
  O        21.7542825853       12.4834930275        5.9784562259
  O        24.0510580106        6.1291617260        5.8511696607
  O        15.0014763160        6.7912072483        6.9210504067
  O        13.6544393966        1.8010031741       12.7150754597
  O        25.6497226292       10.9198140983        0.5228593985
  O        25.5633399323        8.4333201103        7.1036593471
  O        13.6011651582        4.3691818257        6.0425167741
  O        20.3348917204        4.5235247010        0.6276448571
  O        18.9356164359        8.5687788438       12.8968662814
  O        18.9505901514       10.9963909957        6.1100654324
  O        20.1059687831        2.0073226479        6.6541046716
  O        23.7010923090        2.6841078547        1.4946353261
  O        15.6881471896       10.1873545731       11.7266687473
  O        22.0979209927        9.9782391625        7.7824495252
  O        17.2657236468        2.8191752913        5.4214932499
  O        17.1904234031        3.6207741663       11.8952177717
  O        22.3395062942        9.2760858785        1.3020267633
  O        15.6303162500        9.3111012169        5.3506512856
  O        23.6962655883        3.4948217412        7.6953760173
  O        22.4713146899        5.1581032436        2.5844620627
  O        16.8415805328        7.5776608302       10.5813147758
  O        16.7252285948       11.7977438266        3.8416447543
  O        22.4389701500        1.2934512959        8.8124497492
  O        23.4151095901        7.8131896793        9.1513029617
  O        15.6853155972        5.1551893071        4.1012425322
  O        16.0912506106        1.0173344695       10.6586304851
  O        23.4564743896       11.6847260199        2.8119429462
  O        24.7365312517        3.9544378280        3.5974191491
  O        14.4889786633        8.9028851836        9.3729862647
  O        18.4093414420        2.4686824231        9.5107629271
  O        21.0915437259       10.4550840546        3.6881415046
  O        14.2822055079       10.2854040712        2.9247899919
  O        24.9825590951        2.4901606394        9.8831812047
  O        20.8572605705        8.9255221137       10.1083840505
  O        17.8836036108        4.0655623423        2.7605518317
  O        19.1702754559        7.3806187579        8.4755126045
  O        20.0236585725        5.5940096456        4.2399945498
  O        13.2299163516        5.7554626260        1.8894122993
  O        25.9097945745        7.4117003190       10.9984394315
  O        19.8769102386        0.5580414307       11.2276946828
  O        19.3194908151       12.0322499935        2.0514049589
  O        25.7881273360       12.2853261984        4.5715278824
  O        13.4115058586        0.6067997956        8.4650315582
  O        21.5380998770        5.9832515392        7.1539700635
  O        17.7115406159        6.9272810730        5.6729840741
  O        15.1163799841        0.1449682873        5.7266027670
  O        24.3337042040       12.4930227291        7.2970702061
  O        24.1753093174        6.8576598323        0.4468539512
  O        15.0683526428        6.1959365378       12.3976466411
  O        17.7187667829       12.8386223960       12.3579846517
  O        21.4580053023        0.0609706480        0.6093581697
  O        20.3557411532        8.2782351744        5.9140699059
  O        18.8554991356        4.5366630502        6.8603998036
  O        18.8529143903        2.0246817269        0.3404106273
  O        20.3919927156       10.9884642624       12.8396219989
  O        13.9750316875       11.1168470213        6.7459972233
  O        25.3447873340        1.9089634828        5.9704533944
  O        25.5315896799        4.3648960229       12.3787842066
  O        13.5952752171        8.6313263859        0.4261440093
  O        17.1056680116        9.4559851646        7.8248295296
  O        22.0377164787        3.7057122532        5.1257166542
  O        15.3211916729        3.5713669039        1.3325970510
  O        23.4453092532        9.4535209919       11.9874786608
  O        23.5120542798       10.0118552112        5.3668990722
  O        15.2808464218        2.7222084607        7.9383691743
  O        22.1151512889        2.8460631322       11.6738923376
  O        17.1437686556       10.1629263574        1.1051818760
  O        15.8501535201       11.8392138044        9.0487158929
  O        23.1059549230        1.3351787701        4.0703223556
  O        23.2516524953        5.2590533580       10.5445646471
  O        15.8500757552        7.8114015419        2.6897832826
  O        16.6274920561        1.3412402803        2.4826547245
  O        22.3679260301       11.6470978267       10.1608063039
  O        22.6306102064        7.5738179377        3.9434574332
  O        16.6020763171        5.0136500756        9.0058045170
  O        18.3238178292       10.6246999336       10.3441237318
  O        20.7128426557        2.3665744847        2.5323114536
  O        25.0266703096        8.9854327165        2.7904130414
  O        14.4277134927        3.8391187801       10.3103537069
  O        20.8315398619        3.7758210772        9.0108509025
  O        18.2809812232        9.0536825445        3.7424977950
  O        14.2630044472        2.5161047893        3.9950671429
  O        24.8845559143       10.4779881287        9.4112213659
 Li        16.2215256754        1.5642698879        6.5384337808
 Li        17.7057501740        6.4449702872        9.3975667892
 Li        18.6534937450        1.2660420263       15.8011902767
 Li        20.3673772533        1.8561108173        8.5963815663
 Li        23.0082247720        8.0975164241       -0.1012684513
 Li        16.5620424526       11.5663597393       13.1832551115
 Li        15.2792549276        7.5944167684        4.8499492974
 Li        21.8901793610        7.2036648690        1.8850533532
 Li        16.3190574840       11.3896527098       -0.0204280993
 Li        11.3213673033        6.6380875571       -3.1763150534
 Li        27.5996236359        3.9709837467       12.1678122960
 Li        11.3549195519       -0.1866955217        3.0904920619
 Li        10.5553468065       12.1047594957        4.8737845275
 Li        13.6771113801        4.3935394185        4.1738797202
 Li        18.9818002714        4.2620338716        8.7781980581
 Li        17.4665131216        8.7417160548        5.5012667464
 Li        21.9636359565       18.8259788223        4.7523417116
 Li        18.8630623428        8.2956255561       10.3392488544
 Li        25.5721210769        4.3369470516       10.4016741493
 Li        23.6201146411        0.5187870694       15.1033729091
 Li        16.6123879913       21.2484948394        6.6037851243
 Li        22.5162082349       11.8412968798        7.5567783747
 Li        15.2224951183       -0.8462970441       11.0464114768
 Li        21.3315632646        0.1330584101       10.2037262430
 Li        13.9242559945        8.3264029433        2.5295099031
 Li        14.3048000374        2.4153376313        6.0043410065
 Li        25.4784698268        8.6345286164        9.0992843482
 Li        25.5149277440       10.8230381620        2.4137562577
 Li        13.9756505406       -1.2477295864        8.8868640945
 Li        20.6914415032       17.3248022836        7.4011540883
 Li        18.6194714779       10.1965742868       -0.9357117379
 Li        24.8611215184        8.6709436472        1.0008624949
 Li        18.3991941396       10.3011600307       12.1201351609
 Li        21.6595257713       10.6787077493        5.7770711591
 Li        13.9351146185       14.7523856209       10.2871899232
 Li        26.8350268998        1.8168590955       10.7581339583
 Li        22.0601706110        5.5823254521        4.3047589538
 Li        19.6692246088        9.6651850383        4.7920881917
 Li        14.7117428115        6.0082324978        2.9974026768
 Li        28.3848726218        0.9977320338        7.4389621878
 Li        15.6149139802       13.4094617807        8.3849804132
 Li        19.0610330304       18.4141428164        8.7619913859
 Li        20.7671946144        8.8236740465       -1.2083561260
 Li        12.2433179165        1.4948756387        4.0627583973
 Li        13.1956287662        2.8903050095       11.1435480421
 Li        24.5226538669       13.2754070983        3.2643504654
 Li        23.8838684391       -0.7151931869        4.6814331786
 Li        15.5652868340       12.0942032567       11.5040956999
 Li        20.3728618192        7.5386705853        3.9384182535
 Li        17.8050220908       12.8585821010        2.6737319314
 Li        25.2105330975       -1.5988716436       15.6246982869
 Li        24.2993860691        6.1643366679        9.2931828232
 Li        17.1771295478        5.6939359511       -2.0441224513
 Li        24.9226574312        2.6172615815       12.3425248404
 Li        18.6107065520       11.6799589511        4.3244833669
 Li        10.6924849694       -0.9273925868        5.1424512140
 La         1.5853643291       13.1365259552        3.2523708402
 La        11.3489150605       12.9981896449       10.0106024663
 La         4.9608450488       13.0870649340        9.6568060604
 La         7.9419014921       13.1931940905        3.2686899299
 La        11.4222046546       19.6260349401        3.2413255256
 La         1.5289731236       19.7766686740        9.9019530809
 La         8.1989213602       19.6564470810        9.7386526744
 La         4.7858321010       19.7420638313        3.3973368321
 La         3.1059809188       14.7941551734        0.1072988210
 La         9.8944850290       24.4911193275       -0.1651297611
 La         9.7747247295       17.9334340106        0.0098138377
 La         3.1767400230       21.1852078924       -0.0679225792
 La         3.0451540603       24.6481313660        6.5412372031
 La         9.8432049841       14.6202400357        6.4537049423
 La         9.9330064705       21.3091362132        6.5880020765
 La         3.1729101831       18.1778312581        6.8047304750
 La        -0.1208980614       16.1948481628        1.6090445397
 La        -0.2479132541       23.0261605047       11.4882304610
 La        -0.1399190207       22.9117500565        4.6251482125
 La         0.0952128859       16.3996572103        8.1610493481
 La         6.6457067772       16.3836755039       11.5063880636
 La         6.6734223103       22.8851955819        1.4496397486
 La         6.6811608179       23.2041902086        8.2791847121
 La         6.3681938144       16.3740731045        5.1328938354
 Zr        -0.0525779734       13.0043168743        0.0337501728
 Zr         6.4878890179       13.0764767421        6.6302650156
 Zr        -0.1763846017       19.7333684504        6.3625472112
 Zr         6.4359518145       19.8000140374       -0.0878254695
 Zr         9.5856849381       16.5007351117        3.2003161397
 Zr         3.1618626222       22.8305844172        9.7647832641
 Zr         9.7792175092       23.0260274038        9.8273517366
 Zr         3.0989454666       16.4477679890        3.3610639638
 Zr         3.2547809516       16.4109117350        9.9064517931
 Zr         9.8630752332       22.8896389490        3.2010824655
 Zr         3.1944256516       23.1429338262        3.2035071835
 Zr         9.7796391866       16.2938545354        9.8138942806
 Zr         6.5836011759       19.5406631885        6.5713974446
 Zr        -0.0880102495       19.4857946927       -0.1141608574
 Zr         6.4307414923       13.2870444387        0.0563580184
 Zr        -0.0511932682       13.1468502042        6.6403529018
  O        12.4053831251       13.8370145194        1.8006344817
  O         0.2066838625       25.3554901125       11.1965102120
  O         6.6310398522       25.5349560012        8.5241120378
  O         6.0161911707       13.7445332525        4.5659523868
  O         0.3144057917       20.2482100957        4.5747333258
  O        12.5256209873       19.1189150946        8.3875911093
  O         6.2132872259       18.8805183946       10.8539634014
  O         6.3704880019       20.6707669151        1.8059705673
  O         1.5524891634       26.0669217143        0.3961798502
  O        11.2924828742       13.3883039812       12.2757760933
  O         8.6231952710       20.0468651539       12.3781528262
  O         4.3264945272       19.1657554972        0.7323380560
  O         4.4630206326       13.3327359221        7.2212183427
  O         8.4018514249       25.8207463389        5.7927048029
  O        11.0255375458       19.3188241733        5.7057852541
  O         1.8673189088       20.2339887009        7.1586142042
  O         0.5864219971       15.0696654278       12.7672768281
  O        12.3644175796       24.1174434338        0.1998026745
  O        12.2043582367       21.7033638298        6.8308790932
  O         0.6036874349       17.6609775045        6.0438793707
  O         6.9352302549       17.6873835352        0.3681294055
  O         5.3703059718       21.6705699497       12.6572255838
  O         5.5663940591       24.1932068244        6.3627578024
  O         7.0964499232       15.0811941175        6.9464410248
  O        10.0302952379       16.0280968619        1.3475359914
  O         2.3774070874       23.4536795585       11.6985817816
  O         9.0544445220       23.6760281686        7.9719029131
  O         3.8462352275       15.7610593430        5.2521341155
  O         4.0550780682       16.6046416391       11.8575108085
  O         8.9173479790       22.4997542920        1.2175507525
  O         2.2052676163       22.5571785338        5.1006587446
  O        10.6755498338       16.5299894298        7.7747379085
  O         9.1344506009       18.3805785146        2.4094863974
  O         3.5173458370       20.8872614664       10.2551896670
  O         3.9146592837       24.8328559857        3.8712822685
  O         9.1372899171       14.4769694461        9.0763461228