 # Version information for this restart file 
 # current date 2022-12-23 19:40:20.517
 # current working dir /home/sasakir/apl/cp2kv6/cp2kccd/test_nemd/LLZO_ccd/set
 # Program compiled at                              Fri Dec 23 18:36:04 JST 2022
 # Program compiled on                                                   asahi01
 # Program compiled for                                                     i256
 # Source code revision number                                         svn:18464
 &GLOBAL
   PREFERRED_FFT_LIBRARY  FFTW3
   EXTENDED_FFT_LENGTHS  T
   PRINT_LEVEL  MEDIUM
   PROJECT_NAME ne1000
   RUN_TYPE  MD
   SEED  539
   SAVE_MEM  F
   &TIMINGS  SILENT
     THRESHOLD     9.9999999999999995E-07
   &END TIMINGS
   &DBCSR
     MM_STACK_SIZE  200
   &END DBCSR
 &END GLOBAL
 &MOTION
   &MD
     ENSEMBLE  NVT
     STEPS  20
     TIMESTEP     1.9999999999999996E+00
     STEP_START_VAL  20
     TIME_START_VAL     4.0000000000000007E+01
     ECONS_START_VAL    -7.9193780635541543E+02
     TEMPERATURE     1.0000000000000000E+03
     COMVEL_TOL     1.0000000000000000E-08
     &THERMOSTAT
       TYPE  NOSE_XY
       REGION  GLOBAL
       &NOSE
         LENGTH  1
         TIMECON     9.9999999999999986E+01
         &COORD
              -9.5295140788868096E-03
         &END COORD
         &VELOCITY
              -7.6628433111310392E-06
         &END VELOCITY
         &MASS
               1.6610757114919817E+08
         &END MASS
         &FORCE
              -3.2515183894313985E-09
         &END FORCE
       &END NOSE
     &END THERMOSTAT
     &COLOR
       CDTYPE  CCD
       FZ     2.0000000000000000E-02
       &INDEX_CC
1   3.0
2   3.0
3   3.0
4   3.0
5   3.0
6   3.0
7   3.0
8   3.0
9   3.0
10   3.0
11   3.0
12   3.0
13   3.0
14   3.0
15   3.0
16   3.0
17   3.0
18   3.0
19   3.0
20   3.0
21   3.0
22   3.0
23   3.0
24   3.0
25   4.0
26   4.0
27   4.0
28   4.0
29   4.0
30   4.0
31   4.0
32   4.0
33   4.0
34   4.0
35   4.0
36   4.0
37   4.0
38   4.0
39   4.0
40   4.0
41   -2
42   -2
43   -2
44   -2
45   -2
46   -2
47   -2
48   -2
49   -2
50   -2
51   -2
52   -2
53   -2
54   -2
55   -2
56   -2
57   -2
58   -2
59   -2
60   -2
61   -2
62   -2
63   -2
64   -2
65   -2
66   -2
67   -2
68   -2
69   -2
70   -2
71   -2
72   -2
73   -2
74   -2
75   -2
76   -2
77   -2
78   -2
79   -2
80   -2
81   -2
82   -2
83   -2
84   -2
85   -2
86   -2
87   -2
88   -2
89   -2
90   -2
91   -2
92   -2
93   -2
94   -2
95   -2
96   -2
97   -2
98   -2
99   -2
100   -2
101   -2
102   -2
103   -2
104   -2
105   -2
106   -2
107   -2
108   -2
109   -2
110   -2
111   -2
112   -2
113   -2
114   -2
115   -2
116   -2
117   -2
118   -2
119   -2
120   -2
121   -2
122   -2
123   -2
124   -2
125   -2
126   -2
127   -2
128   -2
129   -2
130   -2
131   -2
132   -2
133   -2
134   -2
135   -2
136   -2
137   1.0
138   1.0
139   1.0
140   1.0
141   1.0
142   1.0
143   1.0
144   1.0
145   1.0
146   1.0
147   1.0
148   1.0
149   1.0
150   1.0
151   1.0
152   1.0
153   1.0
154   1.0
155   1.0
156   1.0
157   1.0
158   1.0
159   1.0
160   1.0
161   1.0
162   1.0
163   1.0
164   1.0
165   1.0
166   1.0
167   1.0
168   1.0
169   1.0
170   1.0
171   1.0
172   1.0
173   1.0
174   1.0
175   1.0
176   1.0
177   1.0
178   1.0
179   1.0
180   1.0
181   1.0
182   1.0
183   1.0
184   1.0
185   1.0
186   1.0
187   1.0
188   1.0
189   1.0
190   1.0
191   1.0
192   1.0
193   3.0
194   3.0
195   3.0
196   3.0
197   3.0
198   3.0
199   3.0
200   3.0
201   3.0
202   3.0
203   3.0
204   3.0
205   3.0
206   3.0
207   3.0
208   3.0
209   3.0
210   3.0
211   3.0
212   3.0
213   3.0
214   3.0
215   3.0
216   3.0
217   4.0
218   4.0
219   4.0
220   4.0
221   4.0
222   4.0
223   4.0
224   4.0
225   4.0
226   4.0
227   4.0
228   4.0
229   4.0
230   4.0
231   4.0
232   4.0
233   -2
234   -2
235   -2
236   -2
237   -2
238   -2
239   -2
240   -2
241   -2
242   -2
243   -2
244   -2
245   -2
246   -2
247   -2
248   -2
249   -2
250   -2
251   -2
252   -2
253   -2
254   -2
255   -2
256   -2
257   -2
258   -2
259   -2
260   -2
261   -2
262   -2
263   -2
264   -2
265   -2
266   -2
267   -2
268   -2
269   -2
270   -2
271   -2
272   -2
273   -2
274   -2
275   -2
276   -2
277   -2
278   -2
279   -2
280   -2
281   -2
282   -2
283   -2
284   -2
285   -2
286   -2
287   -2
288   -2
289   -2
290   -2
291   -2
292   -2
293   -2
294   -2
295   -2
296   -2
297   -2
298   -2
299   -2
300   -2
301   -2
302   -2
303   -2
304   -2
305   -2
306   -2
307   -2
308   -2
309   -2
310   -2
311   -2
312   -2
313   -2
314   -2
315   -2
316   -2
317   -2
318   -2
319   -2
320   -2
321   -2
322   -2
323   -2
324   -2
325   -2
326   -2
327   -2
328   -2
329   1.0
330   1.0
331   1.0
332   1.0
333   1.0
334   1.0
335   1.0
336   1.0
337   1.0
338   1.0
339   1.0
340   1.0
341   1.0
342   1.0
343   1.0
344   1.0
345   1.0
346   1.0
347   1.0
348   1.0
349   1.0
350   1.0
351   1.0
352   1.0
353   1.0
354   1.0
355   1.0
356   1.0
357   1.0
358   1.0
359   1.0
360   1.0
361   1.0
362   1.0
363   1.0
364   1.0
365   1.0
366   1.0
367   1.0
368   1.0
369   1.0
370   1.0
371   1.0
372   1.0
373   1.0
374   1.0
375   1.0
376   1.0
377   1.0
378   1.0
379   1.0
380   1.0
381   1.0
382   1.0
383   1.0
384   1.0
385   3.0
386   3.0
387   3.0
388   3.0
389   3.0
390   3.0
391   3.0
392   3.0
393   3.0
394   3.0
395   3.0
396   3.0
397   3.0
398   3.0
399   3.0
400   3.0
401   3.0
402   3.0
403   3.0
404   3.0
405   3.0
406   3.0
407   3.0
408   3.0
409   4.0
410   4.0
411   4.0
412   4.0
413   4.0
414   4.0
415   4.0
416   4.0
417   4.0
418   4.0
419   4.0
420   4.0
421   4.0
422   4.0
423   4.0
424   4.0
425   -2
426   -2
427   -2
428   -2
429   -2
430   -2
431   -2
432   -2
433   -2
434   -2
435   -2
436   -2
437   -2
438   -2
439   -2
440   -2
441   -2
442   -2
443   -2
444   -2
445   -2
446   -2
447   -2
448   -2
449   -2
450   -2
451   -2
452   -2
453   -2
454   -2
455   -2
456   -2
457   -2
458   -2
459   -2
460   -2
461   -2
462   -2
463   -2
464   -2
465   -2
466   -2
467   -2
468   -2
469   -2
470   -2
471   -2
472   -2
473   -2
474   -2
475   -2
476   -2
477   -2
478   -2
479   -2
480   -2
481   -2
482   -2
483   -2
484   -2
485   -2
486   -2
487   -2
488   -2
489   -2
490   -2
491   -2
492   -2
493   -2
494   -2
495   -2
496   -2
497   -2
498   -2
499   -2
500   -2
501   -2
502   -2
503   -2
504   -2
505   -2
506   -2
507   -2
508   -2
509   -2
510   -2
511   -2
512   -2
513   -2
514   -2
515   -2
516   -2
517   -2
518   -2
519   -2
520   -2
521   1.0
522   1.0
523   1.0
524   1.0
525   1.0
526   1.0
527   1.0
528   1.0
529   1.0
530   1.0
531   1.0
532   1.0
533   1.0
534   1.0
535   1.0
536   1.0
537   1.0
538   1.0
539   1.0
540   1.0
541   1.0
542   1.0
543   1.0
544   1.0
545   1.0
546   1.0
547   1.0
548   1.0
549   1.0
550   1.0
551   1.0
552   1.0
553   1.0
554   1.0
555   1.0
556   1.0
557   1.0
558   1.0
559   1.0
560   1.0
561   1.0
562   1.0
563   1.0
564   1.0
565   1.0
566   1.0
567   1.0
568   1.0
569   1.0
570   1.0
571   1.0
572   1.0
573   1.0
574   1.0
575   1.0
576   1.0
577   3.0
578   3.0
579   3.0
580   3.0
581   3.0
582   3.0
583   3.0
584   3.0
585   3.0
586   3.0
587   3.0
588   3.0
589   3.0
590   3.0
591   3.0
592   3.0
593   3.0
594   3.0
595   3.0
596   3.0
597   3.0
598   3.0
599   3.0
600   3.0
601   4.0
602   4.0
603   4.0
604   4.0
605   4.0
606   4.0
607   4.0
608   4.0
609   4.0
610   4.0
611   4.0
612   4.0
613   4.0
614   4.0
615   4.0
616   4.0
617   -2
618   -2
619   -2
620   -2
621   -2
622   -2
623   -2
624   -2
625   -2
626   -2
627   -2
628   -2
629   -2
630   -2
631   -2
632   -2
633   -2
634   -2
635   -2
636   -2
637   -2
638   -2
639   -2
640   -2
641   -2
642   -2
643   -2
644   -2
645   -2
646   -2
647   -2
648   -2
649   -2
650   -2
651   -2
652   -2
653   -2
654   -2
655   -2
656   -2
657   -2
658   -2
659   -2
660   -2
661   -2
662   -2
663   -2
664   -2
665   -2
666   -2
667   -2
668   -2
669   -2
670   -2
671   -2
672   -2
673   -2
674   -2
675   -2
676   -2
677   -2
678   -2
679   -2
680   -2
681   -2
682   -2
683   -2
684   -2
685   -2
686   -2
687   -2
688   -2
689   -2
690   -2
691   -2
692   -2
693   -2
694   -2
695   -2
696   -2
697   -2
698   -2
699   -2
700   -2
701   -2
702   -2
703   -2
704   -2
705   -2
706   -2
707   -2
708   -2
709   -2
710   -2
711   -2
712   -2
713   1.0
714   1.0
715   1.0
716   1.0
717   1.0
718   1.0
719   1.0
720   1.0
721   1.0
722   1.0
723   1.0
724   1.0
725   1.0
726   1.0
727   1.0
728   1.0
729   1.0
730   1.0
731   1.0
732   1.0
733   1.0
734   1.0
735   1.0
736   1.0
737   1.0
738   1.0
739   1.0
740   1.0
741   1.0
742   1.0
743   1.0
744   1.0
745   1.0
746   1.0
747   1.0
748   1.0
749   1.0
750   1.0
751   1.0
752   1.0
753   1.0
754   1.0
755   1.0
756   1.0
757   1.0
758   1.0
759   1.0
760   1.0
761   1.0
762   1.0
763   1.0
764   1.0
765   1.0
766   1.0
767   1.0
768   1.0
769   3.0
770   3.0
771   3.0
772   3.0
773   3.0
774   3.0
775   3.0
776   3.0
777   3.0
778   3.0
779   3.0
780   3.0
781   3.0
782   3.0
783   3.0
784   3.0
785   3.0
786   3.0
787   3.0
788   3.0
789   3.0
790   3.0
791   3.0
792   3.0
793   4.0
794   4.0
795   4.0
796   4.0
797   4.0
798   4.0
799   4.0
800   4.0
801   4.0
802   4.0
803   4.0
804   4.0
805   4.0
806   4.0
807   4.0
808   4.0
809   -2
810   -2
811   -2
812   -2
813   -2
814   -2
815   -2
816   -2
817   -2
818   -2
819   -2
820   -2
821   -2
822   -2
823   -2
824   -2
825   -2
826   -2
827   -2
828   -2
829   -2
830   -2
831   -2
832   -2
833   -2
834   -2
835   -2
836   -2
837   -2
838   -2
839   -2
840   -2
841   -2
842   -2
843   -2
844   -2
845   -2
846   -2
847   -2
848   -2
849   -2
850   -2
851   -2
852   -2
853   -2
854   -2
855   -2
856   -2
857   -2
858   -2
859   -2
860   -2
861   -2
862   -2
863   -2
864   -2
865   -2
866   -2
867   -2
868   -2
869   -2
870   -2
871   -2
872   -2
873   -2
874   -2
875   -2
876   -2
877   -2
878   -2
879   -2
880   -2
881   -2
882   -2
883   -2
884   -2
885   -2
886   -2
887   -2
888   -2
889   -2
890   -2
891   -2
892   -2
893   -2
894   -2
895   -2
896   -2
897   -2
898   -2
899   -2
900   -2
901   -2
902   -2
903   -2
904   -2
905   1.0
906   1.0
907   1.0
908   1.0
909   1.0
910   1.0
911   1.0
912   1.0
913   1.0
914   1.0
915   1.0
916   1.0
917   1.0
918   1.0
919   1.0
920   1.0
921   1.0
922   1.0
923   1.0
924   1.0
925   1.0
926   1.0
927   1.0
928   1.0
929   1.0
930   1.0
931   1.0
932   1.0
933   1.0
934   1.0
935   1.0
936   1.0
937   1.0
938   1.0
939   1.0
940   1.0
941   1.0
942   1.0
943   1.0
944   1.0
945   1.0
946   1.0
947   1.0
948   1.0
949   1.0
950   1.0
951   1.0
952   1.0
953   1.0
954   1.0
955   1.0
956   1.0
957   1.0
958   1.0
959   1.0
960   1.0
961   3.0
962   3.0
963   3.0
964   3.0
965   3.0
966   3.0
967   3.0
968   3.0
969   3.0
970   3.0
971   3.0
972   3.0
973   3.0
974   3.0
975   3.0
976   3.0
977   3.0
978   3.0
979   3.0
980   3.0
981   3.0
982   3.0
983   3.0
984   3.0
985   4.0
986   4.0
987   4.0
988   4.0
989   4.0
990   4.0
991   4.0
992   4.0
993   4.0
994   4.0
995   4.0
996   4.0
997   4.0
998   4.0
999   4.0
1000   4.0
1001   -2
1002   -2
1003   -2
1004   -2
1005   -2
1006   -2
1007   -2
1008   -2
1009   -2
1010   -2
1011   -2
1012   -2
1013   -2
1014   -2
1015   -2
1016   -2
1017   -2
1018   -2
1019   -2
1020   -2
1021   -2
1022   -2
1023   -2
1024   -2
1025   -2
1026   -2
1027   -2
1028   -2
1029   -2
1030   -2
1031   -2
1032   -2
1033   -2
1034   -2
1035   -2
1036   -2
1037   -2
1038   -2
1039   -2
1040   -2
1041   -2
1042   -2
1043   -2
1044   -2
1045   -2
1046   -2
1047   -2
1048   -2
1049   -2
1050   -2
1051   -2
1052   -2
1053   -2
1054   -2
1055   -2
1056   -2
1057   -2
1058   -2
1059   -2
1060   -2
1061   -2
1062   -2
1063   -2
1064   -2
1065   -2
1066   -2
1067   -2
1068   -2
1069   -2
1070   -2
1071   -2
1072   -2
1073   -2
1074   -2
1075   -2
1076   -2
1077   -2
1078   -2
1079   -2
1080   -2
1081   -2
1082   -2
1083   -2
1084   -2
1085   -2
1086   -2
1087   -2
1088   -2
1089   -2
1090   -2
1091   -2
1092   -2
1093   -2
1094   -2
1095   -2
1096   -2
1097   1.0
1098   1.0
1099   1.0
1100   1.0
1101   1.0
1102   1.0
1103   1.0
1104   1.0
1105   1.0
1106   1.0
1107   1.0
1108   1.0
1109   1.0
1110   1.0
1111   1.0
1112   1.0
1113   1.0
1114   1.0
1115   1.0
1116   1.0
1117   1.0
1118   1.0
1119   1.0
1120   1.0
1121   1.0
1122   1.0
1123   1.0
1124   1.0
1125   1.0
1126   1.0
1127   1.0
1128   1.0
1129   1.0
1130   1.0
1131   1.0
1132   1.0
1133   1.0
1134   1.0
1135   1.0
1136   1.0
1137   1.0
1138   1.0
1139   1.0
1140   1.0
1141   1.0
1142   1.0
1143   1.0
1144   1.0
1145   1.0
1146   1.0
1147   1.0
1148   1.0
1149   1.0
1150   1.0
1151   1.0
1152   1.0
1153   3.0
1154   3.0
1155   3.0
1156   3.0
1157   3.0
1158   3.0
1159   3.0
1160   3.0
1161   3.0
1162   3.0
1163   3.0
1164   3.0
1165   3.0
1166   3.0
1167   3.0
1168   3.0
1169   3.0
1170   3.0
1171   3.0
1172   3.0
1173   3.0
1174   3.0
1175   3.0
1176   3.0
1177   4.0
1178   4.0
1179   4.0
1180   4.0
1181   4.0
1182   4.0
1183   4.0
1184   4.0
1185   4.0
1186   4.0
1187   4.0
1188   4.0
1189   4.0
1190   4.0
1191   4.0
1192   4.0
1193   -2
1194   -2
1195   -2
1196   -2
1197   -2
1198   -2
1199   -2
1200   -2
1201   -2
1202   -2
1203   -2
1204   -2
1205   -2
1206   -2
1207   -2
1208   -2
1209   -2
1210   -2
1211   -2
1212   -2
1213   -2
1214   -2
1215   -2
1216   -2
1217   -2
1218   -2
1219   -2
1220   -2
1221   -2
1222   -2
1223   -2
1224   -2
1225   -2
1226   -2
1227   -2
1228   -2
1229   -2
1230   -2
1231   -2
1232   -2
1233   -2
1234   -2
1235   -2
1236   -2
1237   -2
1238   -2
1239   -2
1240   -2
1241   -2
1242   -2
1243   -2
1244   -2
1245   -2
1246   -2
1247   -2
1248   -2
1249   -2
1250   -2
1251   -2
1252   -2
1253   -2
1254   -2
1255   -2
1256   -2
1257   -2
1258   -2
1259   -2
1260   -2
1261   -2
1262   -2
1263   -2
1264   -2
1265   -2
1266   -2
1267   -2
1268   -2
1269   -2
1270   -2
1271   -2
1272   -2
1273   -2
1274   -2
1275   -2
1276   -2
1277   -2
1278   -2
1279   -2
1280   -2
1281   -2
1282   -2
1283   -2
1284   -2
1285   -2
1286   -2
1287   -2
1288   -2
1289   1.0
1290   1.0
1291   1.0
1292   1.0
1293   1.0
1294   1.0
1295   1.0
1296   1.0
1297   1.0
1298   1.0
1299   1.0
1300   1.0
1301   1.0
1302   1.0
1303   1.0
1304   1.0
1305   1.0
1306   1.0
1307   1.0
1308   1.0
1309   1.0
1310   1.0
1311   1.0
1312   1.0
1313   1.0
1314   1.0
1315   1.0
1316   1.0
1317   1.0
1318   1.0
1319   1.0
1320   1.0
1321   1.0
1322   1.0
1323   1.0
1324   1.0
1325   1.0
1326   1.0
1327   1.0
1328   1.0
1329   1.0
1330   1.0
1331   1.0
1332   1.0
1333   1.0
1334   1.0
1335   1.0
1336   1.0
1337   1.0
1338   1.0
1339   1.0
1340   1.0
1341   1.0
1342   1.0
1343   1.0
1344   1.0
1345   3.0
1346   3.0
1347   3.0
1348   3.0
1349   3.0
1350   3.0
1351   3.0
1352   3.0
1353   3.0
1354   3.0
1355   3.0
1356   3.0
1357   3.0
1358   3.0
1359   3.0
1360   3.0
1361   3.0
1362   3.0
1363   3.0
1364   3.0
1365   3.0
1366   3.0
1367   3.0
1368   3.0
1369   4.0
1370   4.0
1371   4.0
1372   4.0
1373   4.0
1374   4.0
1375   4.0
1376   4.0
1377   4.0
1378   4.0
1379   4.0
1380   4.0
1381   4.0
1382   4.0
1383   4.0
1384   4.0
1385   -2
1386   -2
1387   -2
1388   -2
1389   -2
1390   -2
1391   -2
1392   -2
1393   -2
1394   -2
1395   -2
1396   -2
1397   -2
1398   -2
1399   -2
1400   -2
1401   -2
1402   -2
1403   -2
1404   -2
1405   -2
1406   -2
1407   -2
1408   -2
1409   -2
1410   -2
1411   -2
1412   -2
1413   -2
1414   -2
1415   -2
1416   -2
1417   -2
1418   -2
1419   -2
1420   -2
1421   -2
1422   -2
1423   -2
1424   -2
1425   -2
1426   -2
1427   -2
1428   -2
1429   -2
1430   -2
1431   -2
1432   -2
1433   -2
1434   -2
1435   -2
1436   -2
1437   -2
1438   -2
1439   -2
1440   -2
1441   -2
1442   -2
1443   -2
1444   -2
1445   -2
1446   -2
1447   -2
1448   -2
1449   -2
1450   -2
1451   -2
1452   -2
1453   -2
1454   -2
1455   -2
1456   -2
1457   -2
1458   -2
1459   -2
1460   -2
1461   -2
1462   -2
1463   -2
1464   -2
1465   -2
1466   -2
1467   -2
1468   -2
1469   -2
1470   -2
1471   -2
1472   -2
1473   -2
1474   -2
1475   -2
1476   -2
1477   -2
1478   -2
1479   -2
1480   -2
1481   1.0
1482   1.0
1483   1.0
1484   1.0
1485   1.0
1486   1.0
1487   1.0
1488   1.0
1489   1.0
1490   1.0
1491   1.0
1492   1.0
1493   1.0
1494   1.0
1495   1.0
1496   1.0
1497   1.0
1498   1.0
1499   1.0
1500   1.0
1501   1.0
1502   1.0
1503   1.0
1504   1.0
1505   1.0
1506   1.0
1507   1.0
1508   1.0
1509   1.0
1510   1.0
1511   1.0
1512   1.0
1513   1.0
1514   1.0
1515   1.0
1516   1.0
1517   1.0
1518   1.0
1519   1.0
1520   1.0
1521   1.0
1522   1.0
1523   1.0
1524   1.0
1525   1.0
1526   1.0
1527   1.0
1528   1.0
1529   1.0
1530   1.0
1531   1.0
1532   1.0
1533   1.0
1534   1.0
1535   1.0
1536   1.0
       &END INDEX_CC
     &END COLOR
     &AVERAGES  T
       &RESTART_AVERAGES
         ITIMES_START  1
         AVECPU     1.8590713705634698E-01
         AVEHUGONIOT     0.0000000000000000E+00
         AVETEMP_BARO     0.0000000000000000E+00
         AVEPOT    -7.9905108343924508E+02
         AVEKIN     7.1617348146155750E+00
         AVETEMP     9.8219078803886566E+02
         AVEKIN_QM     0.0000000000000000E+00
         AVETEMP_QM     0.0000000000000000E+00
         AVEVOL     1.2225854303944232E+05
         AVECELL_A     4.9631767154108516E+01
         AVECELL_B     4.9631767154108516E+01
         AVECELL_C     4.9631767154108516E+01
         AVEALPHA     9.0000000000000000E+01
         AVEBETA     9.0000000000000000E+01
         AVEGAMMA     9.0000000000000000E+01
         AVE_ECONS     1.4229247884478766E+00
         AVE_PRESS     0.0000000000000000E+00
         AVE_PXX     0.0000000000000000E+00
       &END RESTART_AVERAGES
     &END AVERAGES
   &END MD
   &PRINT
     &TRAJECTORY  SILENT
       &EACH
         MD  1
       &END EACH
     &END TRAJECTORY
     &VELOCITIES  SILENT
       FILENAME ./nvt1000
       UNIT angstrom*fs^-1
       FORMAT  XMOL
       &EACH
         MD  1
       &END EACH
     &END VELOCITIES
   &END PRINT
 &END MOTION
 &FORCE_EVAL
   METHOD  FIST
   &MM
     &FORCEFIELD
       &NONBONDED
         &WILLIAMS
           ATOMS Li O
           A     1.2617462556417104E+07
           B     3.8461538461538463E+00
           C     0.0000000000000000E+00
           RCUT     1.2000000000000000E+01
         &END WILLIAMS
         &WILLIAMS
           ATOMS La O
           A     2.4082365647463106E+07
           B     3.0674846625766881E+00
           C     2.6980474798508000E+05
           RCUT     1.2000000000000000E+01
         &END WILLIAMS
         &WILLIAMS
           ATOMS Zr O
           A     1.9151147169666119E+07
           B     3.2154340836012869E+00
           C     5.9182976977372389E+04
           RCUT     1.2000000000000000E+01
         &END WILLIAMS
         &WILLIAMS
           ATOMS O O
           A     5.6513940760745794E+07
           B     3.7453183520599249E+00
           C     8.9354690730542643E+05
           RCUT     1.2000000000000000E+01
         &END WILLIAMS
         &WILLIAMS
           ATOMS Li Li
           A     0.0000000000000000E+00
           B     0.0000000000000000E+00
           C     0.0000000000000000E+00
           RCUT     1.2000000000000000E+01
         &END WILLIAMS
         &WILLIAMS
           ATOMS Li La
           A     0.0000000000000000E+00
           B     0.0000000000000000E+00
           C     0.0000000000000000E+00
           RCUT     1.2000000000000000E+01
         &END WILLIAMS
         &WILLIAMS
           ATOMS Li Zr
           A     0.0000000000000000E+00
           B     0.0000000000000000E+00
           C     0.0000000000000000E+00
           RCUT     1.2000000000000000E+01
         &END WILLIAMS
         &WILLIAMS
           ATOMS La La
           A     0.0000000000000000E+00
           B     0.0000000000000000E+00
           C     0.0000000000000000E+00
           RCUT     1.2000000000000000E+01
         &END WILLIAMS
         &WILLIAMS
           ATOMS La Zr
           A     0.0000000000000000E+00
           B     0.0000000000000000E+00
           C     0.0000000000000000E+00
           RCUT     1.2000000000000000E+01
         &END WILLIAMS
         &WILLIAMS
           ATOMS Zr Zr
           A     0.0000000000000000E+00
           B     0.0000000000000000E+00
           C     0.0000000000000000E+00
           RCUT     1.2000000000000000E+01
         &END WILLIAMS
       &END NONBONDED
       &CHARGE
         ATOM La
         CHARGE     2.5000000000000000E+00
       &END CHARGE
       &CHARGE
         ATOM Zr
         CHARGE     2.6499999999999999E+00
       &END CHARGE
       &CHARGE
         ATOM O
         CHARGE    -1.6499999999999999E+00
       &END CHARGE
       &CHARGE
         ATOM Li
         CHARGE     1.0000000000000000E+00
       &END CHARGE
     &END FORCEFIELD
     &POISSON
       &EWALD
         EWALD_TYPE  PME
         RCUT     1.2000000000000000E+01
         ALPHA     2.9999999999999999E-01
       &END EWALD
     &END POISSON
   &END MM
   &SUBSYS
     &CELL
       A     2.6263999999999999E+01    0.0000000000000000E+00    0.0000000000000000E+00
       B     0.0000000000000000E+00    2.6263999999999999E+01    0.0000000000000000E+00
       C     0.0000000000000000E+00    0.0000000000000000E+00    2.6263999999999999E+01
       PERIODIC  XYZ
       MULTIPLE_UNIT_CELL  1 1 1
       SYMMETRY  NONE
     &END CELL
     &COORD
La    1.6828648053435107E+00    2.4443419633171151E-01    3.1969256141424540E+00
La    1.1285655422023837E+01    1.8279806845239094E-01    9.7314190375249456E+00
La    4.7257314875618306E+00   -1.3925444274470336E-01    9.7605872011019645E+00
La    8.1327139117830374E+00   -1.5095577201218738E-01    3.1998258294323532E+00
La    1.1350458321912942E+01    6.4557035108183136E+00    3.1406099747190455E+00
La    1.3858332812963174E+00    6.7247731875393617E+00    9.7814303226622705E+00
La    7.9457674652088777E+00    6.5439650438298518E+00    9.7043405868905932E+00
La    4.7842057528065034E+00    6.4223307893023751E+00    3.1208468498572963E+00
La    2.9820984585025716E+00    1.5194485909718660E+00   -1.0894483875013843E-01
La    9.5654218842304566E+00    1.1244594828804807E+01   -7.2142902867144199E-02
La    9.6641362649341254E+00    4.9243124298959495E+00   -2.1247501807387412E-01
La    3.1029739714232054E+00    8.0990885957140240E+00    5.8015539692182642E-02
La    3.1706235143494026E+00    1.1267006188184883E+01    6.5752099723268209E+00
La    9.7108356322555203E+00    1.6982139800007900E+00    6.4990073848066725E+00
La    9.5284688572347562E+00    8.1452444725791153E+00    6.4657593220270719E+00
La    3.2307900100605580E+00    4.9859922807859984E+00    6.5646171924178640E+00
La   -2.9270577066142400E-01    3.2282472165339979E+00    1.5198765493435769E+00
La    2.5798097135879566E-01    9.7776952229761864E+00    1.1500254537083643E+01
La   -4.7781101360602471E-02    9.5743990417358980E+00    4.8492977130185793E+00
La   -1.5275489633297645E-01    3.3046490966534336E+00    7.9590199047250483E+00
La    6.5201169428065953E+00    3.0911101624164332E+00    1.1271172455740080E+01
La    6.5705199548212905E+00    1.0024550529791314E+01    1.8162596744783406E+00
La    6.3982523467743482E+00    9.7023369468738228E+00    8.1174870290449537E+00
La    6.5217057859720002E+00    3.2502521319894142E+00    4.8829670256715447E+00
Zr   -3.3360093507986743E-01   -8.0999502690236980E-02   -5.0803322182917936E-02
Zr    6.4311645808985443E+00   -8.1967685846043442E-02    6.4235130498620752E+00
Zr   -2.6232222090435142E-01    6.4504946516474790E+00    6.7001040113038837E+00
Zr    6.3128361200710739E+00    6.6759934357835391E+00   -5.2653592130732035E-02
Zr    9.8344312108864873E+00    3.3503539475103516E+00    2.9964732857441856E+00
Zr    3.3172423804727802E+00    9.6669246740561867E+00    9.9315543598755553E+00
Zr    9.7833409488657619E+00    9.7419368977356395E+00    9.5945788634071771E+00
Zr    3.2372442717256429E+00    3.3797439033408438E+00    3.1130499875260935E+00
Zr    3.0892590594505625E+00    3.2529941665489508E+00    9.7166637416075758E+00
Zr    9.7106760528688767E+00    9.6954116317920587E+00    3.4255738563527491E+00
Zr    3.3705219097405559E+00    9.8391074106114722E+00    3.3426963177832469E+00
Zr    9.6593553883565395E+00    3.1004270132459077E+00    9.7699549189980655E+00
Zr    6.4535922280020586E+00    6.3501641877810826E+00    6.3612942729637627E+00
Zr   -2.0846364687743726E-02    6.3664547007470773E+00   -2.1779941707918338E-01
Zr    6.6308583915186361E+00   -4.5597373403331004E-02   -1.3251032702957904E-01
Zr   -1.9810678772570162E-01   -9.6942158523207519E-02    6.3619811091536977E+00
O    1.2559906367931937E+01    6.2365409691581664E-01    1.8455079741409193E+00
O    3.8521128102561558E-01    1.2397286195612397E+01    1.1125361045577973E+01
O    6.8429324104577329E+00    1.2543176874858720E+01    8.3945480412539766E+00
O    6.1093956062325088E+00    8.8131854137839660E-01    4.6034707009318083E+00
O    2.8891537591616473E-01    7.2516201712993036E+00    4.7783005267689385E+00
O    1.2700222351488060E+01    5.7002381898647778E+00    8.5859238305537868E+00
O    6.0375211550431684E+00    5.6568887344044718E+00    1.0989590419328042E+01
O    6.7340718966495041E+00    7.4273692954973365E+00    1.8189809461109379E+00
O    1.9246686483037629E+00    1.2569006001071402E+01    8.3085016961163849E-01
O    1.1039023793166221E+01    2.4374828572863874E-01    1.2139927822255881E+01
O    8.3025318497095046E+00    6.6767889550576172E+00    1.2279188468096530E+01
O    4.4142862554317581E+00    6.0278180398864114E+00    6.2471896830256046E-01
O    4.1582189967938774E+00    4.8553251630801991E-01    7.1388673426168907E+00
O    8.6273782732278814E+00    1.2740216806503966E+01    5.7281610828409040E+00
O    1.0927591072879773E+01    6.2000799025608533E+00    5.9130794394215078E+00
O    1.8310976396268901E+00    7.0443549763471971E+00    7.3743727264508090E+00
O    5.8861141875507406E-01    1.9908230634215478E+00    1.2567065282919893E+01
O    1.1950277786401410E+01    1.1257743977040327E+01    7.3328735004968315E-01
O    1.2629880150362144E+01    8.2051601670253209E+00    6.8693674381226613E+00
O    3.0031709850584271E-01    4.5461964934943468E+00    5.9418874526158403E+00
O    7.1941840293869737E+00    4.6245802917466294E+00    1.7624880167123702E-01
O    5.8388165108686980E+00    8.4328437576068342E+00    1.2596708021272203E+01
O    5.7890987950525581E+00    1.1014296363904881E+01    6.4149947034750978E+00
O    7.3235692273873463E+00    1.9300737144136142E+00    6.8109617124706654E+00
O    1.0234337834700352E+01    2.9117656747224738E+00    1.1175530443610631E+00
O    2.8783467048819555E+00    1.0068892150634968E+01    1.1735120313162245E+01
O    8.9812211451148318E+00    1.0369843937146744E+01    7.6885492040031842E+00
O    3.8312893410122983E+00    2.9379747832626046E+00    5.2294838137826902E+00
O    3.7711596100951774E+00    3.4768004311835239E+00    1.1737948622134660E+01
O    9.1949366398373513E+00    9.3545657121732386E+00    1.3624491966788101E+00
O    2.5422335239417357E+00    9.5316077872148490E+00    5.1353186752722397E+00
O    1.0612779442405170E+01    3.6410162857565052E+00    7.8313646844770144E+00
O    9.4313222703476729E+00    5.3497418061381099E+00    2.4002009626988574E+00
O    3.6769759985458821E+00    7.6569914196197999E+00    1.0244072121952129E+01
O    3.8721461655462628E+00    1.1898660835747176E+01    4.1760366474067387E+00
O    9.4063114672209505E+00    1.2143692811369953E+00    8.8822134039296348E+00
O    1.0166914573977923E+01    7.8357346225226783E+00    8.7706507597645000E+00
O    2.6496231354130240E+00    5.2615232335054882E+00    3.7616241149719274E+00
O    2.6340699107817080E+00    1.0923240886627703E+00    1.0604639193815203E+01
O    9.8083660539643471E+00    1.1644155877061465E+01    2.7921067166698887E+00
O    1.1874380588219527E+01    3.8582344715225236E+00    3.3306829854522668E+00
O    1.4090314582657599E+00    9.0405627496083270E+00    9.4988770009712127E+00
O    5.0344669897716168E+00    2.4494298603335345E+00    9.4925979370814648E+00
O    7.5756066335540346E+00    1.0618493976426576E+01    3.8283334219530971E+00
O    1.2846488405704235E+00    1.0544933387746095E+01    2.8895685404804623E+00
O    1.1542159321609731E+01    2.5330294525949371E+00    1.0261878326949882E+01
O    7.6643798788751738E+00    9.0978898507322352E+00    1.0189518857863709E+01
O    5.1450534103979342E+00    4.0962555537122469E+00    2.6389183473622460E+00
O    5.9982604150556371E+00    6.9981460396105488E+00    8.3263612276358980E+00
O    6.8052917328866807E+00    5.5601199161367294E+00    4.3565164546160720E+00
O    1.8257997189590217E-01    5.5674561768204027E+00    1.9051222691988643E+00
O    1.2515426285902883E+01    7.2792834516979843E+00    1.1111251707007833E+01
O    6.7961537245424299E+00    7.3237663407841347E-01    1.1058459856673343E+01
O    6.0855749065272029E+00    1.2385310658061439E+01    1.8883121168937171E+00
O    1.2736513461000836E+01    1.2277968212652898E+01    4.4054315191334235E+00
O    2.0079094681954712E-01    9.1963586579357293E-01    8.3311044442544784E+00
O    8.2672527720305222E+00    5.7749112306956247E+00    7.2432056329685324E+00
O    4.4434828292592607E+00    6.8506052888952658E+00    5.8723793735704568E+00
O    1.5884683557522636E+00    5.4373167631587216E-01    5.6150126219221370E+00
O    1.1361437415010581E+01    1.2692439156850503E+01    7.1045048688366910E+00
O    1.1005567590066340E+01    6.8851975136192038E+00    6.0406902866172629E-01
O    1.9507543648192827E+00    6.0428381258658659E+00    1.2288180951984751E+01
O    4.4292050141643484E+00    1.2552829510864996E+01    1.2357880513146105E+01
O    8.3926505854796023E+00    5.4586075114693011E-01    5.8784111166878250E-01
O    7.0807684521137819E+00    8.4579055550867590E+00    6.2890102098095406E+00
O    5.7775783406471755E+00    4.3810137451165270E+00    7.0297277767654469E+00
O    5.7982753131473901E+00    2.0126850568807941E+00    2.5931037710758598E-01
O    6.9808542534313407E+00    1.1038059444362457E+01    1.2586653242897297E+01