 DBCSR| Multiplication driver                                               XSMM
 DBCSR| Multrec recursion limit                                              512
 DBCSR| Multiplication stack size                                            200
 DBCSR| Maximum elements for images                                    UNLIMITED
 DBCSR| Multiplicative factor virtual images                                   1
 DBCSR| Multiplication size stacks                                             3
 DBCSR| Number of 3D layers                                               SINGLE
 DBCSR| Use MPI memory allocation                                              T
 DBCSR| Use RMA algorithm                                                      F
 DBCSR| Use Communication thread                                               T
 DBCSR| Communication thread load                                             87


  **** **** ******  **  PROGRAM STARTED AT               2022-12-23 19:40:13.528
 ***** ** ***  *** **   PROGRAM STARTED ON                                r4i6n7
 **    ****   ******    PROGRAM STARTED BY                               sasakir
 ***** **    ** ** **   PROGRAM PROCESS ID                                129246
  **** **  *******  **  PROGRAM STARTED IN /home/sasakir/apl/cp2kv6/cp2kccd/test
                                           _nemd/LLZO_ccd/set

 CP2K| version string:                                          CP2K version 6.1
 CP2K| source code revision number:                                    svn:18464
 CP2K| cp2kflags: omp libint fftw3 libxc pexsi elpa=201705 elpa_qr parallel mpi3
 CP2K|             scalapack xsmm libderiv_max_am1=5 libint_max_am=6
 CP2K| is freely available from                            https://www.cp2k.org/
 CP2K| Program compiled at                          Fri Dec 23 18:36:04 JST 2022
 CP2K| Program compiled on                                               asahi01
 CP2K| Program compiled for                                                 i256
 CP2K| Data directory path                 /home/sasakir/apl/cp2kv6/cp2kccd/data
 CP2K| Input file name                                                ne1000.inp
 
 GLOBAL| Force Environment number                                              1
 GLOBAL| Basis set file name                                           BASIS_SET
 GLOBAL| Potential file name                                           POTENTIAL
 GLOBAL| MM Potential file name                                     MM_POTENTIAL
 GLOBAL| Coordinate file name                                        nvt1000.xyz
 GLOBAL| Method name                                                        CP2K
 GLOBAL| Project name                                                     ne1000
 GLOBAL| Preferred FFT library                                             FFTW3
 GLOBAL| Preferred diagonalization lib.                                       SL
 GLOBAL| Run type                                                             MD
 GLOBAL| All-to-all communication in single precision                          F
 GLOBAL| FFTs using library dependent lengths                                  T
 GLOBAL| Global print level                                               MEDIUM
 GLOBAL| Total number of message passing processes                             1
 GLOBAL| Number of threads for this process                                    1
 GLOBAL| This output is from process                                           0
 GLOBAL| CPU model name :  Intel(R) Xeon(R) Platinum 8268 CPU @ 2.90GHz

 MEMORY| system memory details [Kb]
 MEMORY|                        rank 0           min           max       average
 MEMORY| MemTotal            196338908     196338908     196338908     196338908
 MEMORY| MemFree             186886688     186886688     186886688     186886688
 MEMORY| Buffers                     0             0             0             0
 MEMORY| Cached                4671692       4671692       4671692       4671692
 MEMORY| Slab                   618668        618668        618668        618668
 MEMORY| SReclaimable           113144        113144        113144        113144
 MEMORY| MemLikelyFree       191671524     191671524     191671524     191671524


 *** Fundamental physical constants (SI units) ***

 *** Literature: B. J. Mohr and B. N. Taylor,
 ***             CODATA recommended values of the fundamental physical
 ***             constants: 2006, Web Version 5.1
 ***             http://physics.nist.gov/constants

 Speed of light in vacuum [m/s]                             2.99792458000000E+08
 Magnetic constant or permeability of vacuum [N/A**2]       1.25663706143592E-06
 Electric constant or permittivity of vacuum [F/m]          8.85418781762039E-12
 Planck constant (h) [J*s]                                  6.62606896000000E-34
 Planck constant (h-bar) [J*s]                              1.05457162825177E-34
 Elementary charge [C]                                      1.60217648700000E-19
 Electron mass [kg]                                         9.10938215000000E-31
 Electron g factor [ ]                                     -2.00231930436220E+00
 Proton mass [kg]                                           1.67262163700000E-27
 Fine-structure constant                                    7.29735253760000E-03
 Rydberg constant [1/m]                                     1.09737315685270E+07
 Avogadro constant [1/mol]                                  6.02214179000000E+23
 Boltzmann constant [J/K]                                   1.38065040000000E-23
 Atomic mass unit [kg]                                      1.66053878200000E-27
 Bohr radius [m]                                            5.29177208590000E-11

 *** Conversion factors ***

 [u] -> [a.u.]                                              1.82288848426455E+03
 [Angstrom] -> [Bohr] = [a.u.]                              1.88972613288564E+00
 [a.u.] = [Bohr] -> [Angstrom]                              5.29177208590000E-01
 [a.u.] -> [s]                                              2.41888432650478E-17
 [a.u.] -> [fs]                                             2.41888432650478E-02
 [a.u.] -> [J]                                              4.35974393937059E-18
 [a.u.] -> [N]                                              8.23872205491840E-08
 [a.u.] -> [K]                                              3.15774647902944E+05
 [a.u.] -> [kJ/mol]                                         2.62549961709828E+03
 [a.u.] -> [kcal/mol]                                       6.27509468713739E+02
 [a.u.] -> [Pa]                                             2.94210107994716E+13
 [a.u.] -> [bar]                                            2.94210107994716E+08
 [a.u.] -> [atm]                                            2.90362800883016E+08
 [a.u.] -> [eV]                                             2.72113838565563E+01
 [a.u.] -> [Hz]                                             6.57968392072181E+15
 [a.u.] -> [1/cm] (wave numbers)                            2.19474631370540E+05
 [a.u./Bohr**2] -> [1/cm]                                   5.14048714338585E+03
 


                      ************* ******** ***********   
                     ************* **********************  
                     ****     **** ****      ***********   
                     ******** ****  *******     ****       
                     *******  ****   *******   ****        
                     ****     ****       ****  ****        
                     ****     **** **********  ****        
                      ****     **** ********    ****       
                     FRONTIERS IN SIMULATION TECHNOLOGY    
                                                           
                        C.J. Mundy, S. Balasubramanian,    
                     Ken Bagchi, J. Hutter, Ari Seitsonen  
                      IFW Kuo, T. Laino, J. VandeVondele   
                                 Version 1.0               

                                                           


 CELL| Volume [angstrom^3]:                                            18116.847
 CELL| Vector a [angstrom]:      26.264     0.000     0.000    |a| =      26.264
 CELL| Vector b [angstrom]:       0.000    26.264     0.000    |b| =      26.264
 CELL| Vector c [angstrom]:       0.000     0.000    26.264    |c| =      26.264
 CELL| Angle (b,c), alpha [degree]:                                       90.000
 CELL| Angle (a,c), beta  [degree]:                                       90.000
 CELL| Angle (a,b), gamma [degree]:                                       90.000
 CELL| Numerically orthorhombic:                                             YES

 CELL_REF| Volume [angstrom^3]:                                        18116.847
 CELL_REF| Vector a [angstrom    26.264     0.000     0.000    |a| =      26.264
 CELL_REF| Vector b [angstrom     0.000    26.264     0.000    |b| =      26.264
 CELL_REF| Vector c [angstrom     0.000     0.000    26.264    |c| =      26.264
 CELL_REF| Angle (b,c), alpha [degree]:                                   90.000
 CELL_REF| Angle (a,c), beta  [degree]:                                   90.000
 CELL_REF| Angle (a,b), gamma [degree]:                                   90.000
 CELL_REF| Numerically orthorhombic:                                         YES

 EWALD| Summation is done by:                                                PME
 EWALD| Alpha parameter [       ANGSTROM^-1]                              0.3000
 EWALD| Real Space Cutoff [          ANGSTROM]                           12.0000
 EWALD| Max small-grid points (input)                                         11
 EWALD| Gaussian tolerance (input)                                    0.1000E-05

 CELL_TOP| Volume [angstrom^3]:                                        18116.847
 CELL_TOP| Vector a [angstrom    26.264     0.000     0.000    |a| =      26.264
 CELL_TOP| Vector b [angstrom     0.000    26.264     0.000    |b| =      26.264
 CELL_TOP| Vector c [angstrom     0.000     0.000    26.264    |c| =      26.264
 CELL_TOP| Angle (b,c), alpha [degree]:                                   90.000
 CELL_TOP| Angle (a,c), beta  [degree]:                                   90.000
 CELL_TOP| Angle (a,b), gamma [degree]:                                   90.000
 CELL_TOP| Numerically orthorhombic:                                         YES
 
 GENERATE|  Preliminary Number of Bonds generated:                             0
 GENERATE|  Achieved consistency in connectivity generation.
 CHARGE_INFO| Total Charge of the Classical System:                     0.000000
 
 FORCEFIELD| WARNING: A non Critical ForceField parameter is missing! CP2K GOES!
 FORCEFIELD| Non critical parameters are:Urey-Bradley,Torsions,Impropers, Opbends and 1-4
 FORCEFIELD| All missing parameters will not contribute to the potential energy!
 FORCEFIELD| Activate the print key FF_INFO to have a list of missing parameters
 

 SPLINE_INFO| Generating 10 splines for NONBONDED14 interactions 
              Due to 4 different atomic kinds
  ...1  ...2  ...3  ...4  ...5  ...6  ...7  ...8  ...9  ...10
 SPLINE_INFO| Number of unique splines computed:            1
 SPLINE_INFO| Done

 SPLINE_INFO| Generating 10 splines for NONBONDED interactions 
              Due to 4 different atomic kinds
  ...1  ...2  ...3  ...4  ...5  ...6  ...7  ...8  ...9  ...10
 SPLINE_INFO| Number of unique splines computed:            5
 SPLINE_INFO| Done


 MOLECULE KIND INFORMATION


 All atoms are their own molecule, skipping detailed information


 MODULE FIST:  ATOMIC COORDINATES IN ANGSTROM

  Atom  Kind  ATM_TYP       X           Y           Z          q(eff)       Mass

     1    1   La         1.737713    0.217039    3.100590      2.50     138.9055
     2    1   La        11.383536    0.012134    9.688840      2.50     138.9055
     3    1   La         4.747982   -0.034447    9.897232      2.50     138.9055
     4    1   La         8.071406   -0.047854    3.228264      2.50     138.9055
     5    1   La        11.313461    6.515550    3.104623      2.50     138.9055
     6    1   La         1.537357    6.763776    9.777671      2.50     138.9055
     7    1   La         7.959193    6.450530    9.733327      2.50     138.9055
     8    1   La         4.991755    6.427378    3.139581      2.50     138.9055
     9    1   La         3.033173    1.421036   -0.187131      2.50     138.9055
    10    1   La         9.609683   11.035546    0.003028      2.50     138.9055
    11    1   La         9.725473    4.898934   -0.212490      2.50     138.9055
    12    1   La         2.991494    8.053671    0.185994      2.50     138.9055
    13    1   La         3.096328   11.200055    6.517721      2.50     138.9055
    14    1   La         9.812293    1.723142    6.453046      2.50     138.9055
    15    1   La         9.568679    8.088609    6.402688      2.50     138.9055
    16    1   La         3.159581    4.971538    6.543637      2.50     138.9055
    17    1   La        -0.281606    3.153993    1.611835      2.50     138.9055
    18    1   La         0.265178    9.829277   11.425180      2.50     138.9055
    19    1   La        -0.017750    9.685334    4.876768      2.50     138.9055
    20    1   La        -0.349283    3.175791    7.828742      2.50     138.9055
    21    1   La         6.369333    3.192786   11.347567      2.50     138.9055
    22    1   La         6.569290   10.000651    1.696308      2.50     138.9055
    23    1   La         6.387918    9.679323    8.051839      2.50     138.9055
    24    1   La         6.422180    3.225149    4.851955      2.50     138.9055
    25    2   Zr        -0.306374   -0.030301    0.121047      2.65      91.2240
    26    2   Zr         6.346660   -0.029554    6.419209      2.65      91.2240
    27    2   Zr        -0.092224    6.484206    6.577297      2.65      91.2240
    28    2   Zr         6.450617    6.605181   -0.136680      2.65      91.2240
    29    2   Zr         9.821607    3.354600    3.097024      2.65      91.2240
    30    2   Zr         3.532531    9.735935    9.816276      2.65      91.2240
    31    2   Zr         9.769236    9.615530    9.780856      2.65      91.2240
    32    2   Zr         3.220020    3.382507    3.000285      2.65      91.2240
    33    2   Zr         2.953357    3.168075    9.797518      2.65      91.2240
    34    2   Zr         9.770037    9.826615    3.401460      2.65      91.2240
    35    2   Zr         3.351200   10.034534    3.243658      2.65      91.2240
    36    2   Zr         9.633826    3.131210    9.786807      2.65      91.2240
    37    2   Zr         6.531002    6.196320    6.524221      2.65      91.2240
    38    2   Zr        -0.094710    6.258031   -0.108643      2.65      91.2240
    39    2   Zr         6.571502   -0.064180   -0.104395      2.65      91.2240
    40    2   Zr        -0.270632   -0.124899    6.332064      2.65      91.2240
    41    3   O         12.609784    0.687631    1.888515     -1.65      15.9994
    42    3   O          0.499168   12.085722   11.150511     -1.65      15.9994
    43    3   O          7.067788   12.216905    8.668183     -1.65      15.9994
    44    3   O          6.053874    0.753381    4.525028     -1.65      15.9994
    45    3   O          0.056602    7.306520    4.476574     -1.65      15.9994
    46    3   O         12.684543    5.740870    8.498703     -1.65      15.9994
    47    3   O          6.034025    5.572321   11.229086     -1.65      15.9994
    48    3   O          6.926311    7.302620    1.890583     -1.65      15.9994
    49    3   O          1.833465   12.567936    0.880907     -1.65      15.9994
    50    3   O         10.931459    0.242807   12.184307     -1.65      15.9994
    51    3   O          8.414671    7.124076   12.471313     -1.65      15.9994
    52    3   O          4.596318    6.187529    0.921272     -1.65      15.9994
    53    3   O          4.434230    0.513614    6.957062     -1.65      15.9994
    54    3   O          8.457285   12.714357    5.968645     -1.65      15.9994
    55    3   O         11.228948    5.973670    5.549685     -1.65      15.9994
    56    3   O          1.896175    6.691753    7.249747     -1.65      15.9994
    57    3   O          0.593770    1.865170   12.727764     -1.65      15.9994
    58    3   O         11.947667   11.272718    0.307657     -1.65      15.9994
    59    3   O         12.614748    8.431355    6.965881     -1.65      15.9994
    60    3   O          0.367808    4.451479    5.893663     -1.65      15.9994
    61    3   O          7.065647    4.480958    0.387101     -1.65      15.9994
    62    3   O          5.635833    8.119489   12.724577     -1.65      15.9994
    63    3   O          5.879103   11.090909    6.177853     -1.65      15.9994
    64    3   O          7.373964    1.997720    6.686190     -1.65      15.9994
    65    3   O         10.466861    2.991702    0.961976     -1.65      15.9994
    66    3   O          2.788599   10.203204   11.914320     -1.65      15.9994
    67    3   O          8.944054   10.204842    7.814094     -1.65      15.9994
    68    3   O          3.534532    2.981387    5.148180     -1.65      15.9994
    69    3   O          3.668028    3.449162   11.725647     -1.65      15.9994
    70    3   O          9.089445    9.385279    1.521654     -1.65      15.9994
    71    3   O          2.412731    9.242283    5.275484     -1.65      15.9994
    72    3   O         10.412668    3.621537    7.952933     -1.65      15.9994
    73    3   O          9.220275    5.420641    2.232366     -1.65      15.9994
    74    3   O          3.680779    7.854603   10.616155     -1.65      15.9994
    75    3   O          3.655902   11.775853    4.174643     -1.65      15.9994
    76    3   O          9.257461    1.153896    9.004866     -1.65      15.9994
    77    3   O          9.964858    7.599124    8.789780     -1.65      15.9994
    78    3   O          2.844789    5.406350    3.967116     -1.65      15.9994
    79    3   O          2.677406    1.085193   10.528670     -1.65      15.9994
    80    3   O         10.034569   11.776563    2.941473     -1.65      15.9994
    81    3   O         11.731257    3.985840    3.472712     -1.65      15.9994
    82    3   O          1.196901    9.122738    9.427944     -1.65      15.9994
    83    3   O          4.839046    2.424831    9.018699     -1.65      15.9994
    84    3   O          7.638941   10.817846    3.742436     -1.65      15.9994
    85    3   O          1.240839   10.676653    2.878517     -1.65      15.9994
    86    3   O         11.693401    2.458583   10.078560     -1.65      15.9994
    87    3   O          7.752039    8.876616   10.119615     -1.65      15.9994
    88    3   O          5.204967    3.682548    2.788498     -1.65      15.9994
    89    3   O          5.857641    7.167904    8.673109     -1.65      15.9994
    90    3   O          6.688897    5.657996    4.613010     -1.65      15.9994
    91    3   O          0.299436    5.667736    1.877449     -1.65      15.9994
    92    3   O         12.409933    7.084088   11.065150     -1.65      15.9994
    93    3   O          6.716108    0.604610   11.047208     -1.65      15.9994
    94    3   O          6.154058   12.442007    1.943248     -1.65      15.9994
    95    3   O         12.585318   12.451636    4.266024     -1.65      15.9994
    96    3   O          0.375371    0.545321    8.354512     -1.65      15.9994
    97    3   O          8.403599    5.807564    7.318881     -1.65      15.9994
    98    3   O          4.620687    6.831896    5.839115     -1.65      15.9994
    99    3   O          2.109913    0.313168    5.579561     -1.65      15.9994
   100    3   O         11.235017   12.585381    7.597424     -1.65      15.9994
   101    3   O         11.051180    6.925656    0.250254     -1.65      15.9994
   102    3   O          2.042167    6.134849   12.491682     -1.65      15.9994
   103    3   O          4.501316   12.608078   12.634555     -1.65      15.9994
   104    3   O          8.504581    0.178191    0.862499     -1.65      15.9994
   105    3   O          7.156096    8.160591    6.316245     -1.65      15.9994
   106    3   O          5.752994    4.341932    6.762267     -1.65      15.9994
   107    3   O          6.000274    1.843836    0.144754     -1.65      15.9994
   108    3   O          7.096296   10.842472   12.579538     -1.65      15.9994
   109    3   O          0.680805   11.128270    6.855261     -1.65      15.9994
   110    3   O         12.306037    1.780505    6.098523     -1.65      15.9994
   111    3   O         12.088048    4.447729   12.379636     -1.65      15.9994
   112    3   O          0.689152    8.553675    0.501477     -1.65      15.9994
   113    3   O          4.046541    9.321931    7.711170     -1.65      15.9994
   114    3   O          9.296729    3.601090    5.205297     -1.65      15.9994
   115    3   O          2.571669    3.374953    1.068528     -1.65      15.9994
   116    3   O         10.465616    9.456434   11.895023     -1.65      15.9994
   117    3   O         10.655526   10.126413    5.365463     -1.65      15.9994
   118    3   O          2.186037    2.711614    7.714461     -1.65      15.9994
   119    3   O          8.910908    2.660658   11.718407     -1.65      15.9994
   120    3   O          3.954289   10.180062    1.351762     -1.65      15.9994
   121    3   O          2.934663   11.589064    9.375426     -1.65      15.9994
   122    3   O         10.293391    1.313623    3.712987     -1.65      15.9994
   123    3   O          9.910451    5.176437   10.324304     -1.65      15.9994
   124    3   O          2.627837    7.966570    2.506494     -1.65      15.9994
   125    3   O          3.714231    1.277707    2.590946     -1.65      15.9994
   126    3   O          9.272706   11.837673   10.535256     -1.65      15.9994
   127    3   O          9.201749    8.113952    4.200601     -1.65      15.9994
   128    3   O          3.674608    5.093980    8.995538     -1.65      15.9994
   129    3   O          5.382099   10.433290   10.048812     -1.65      15.9994
   130    3   O          7.818091    2.657720    2.617091     -1.65      15.9994
   131    3   O         11.810823    9.009753    2.782189     -1.65      15.9994
   132    3   O          1.140154    3.878508   10.419086     -1.65      15.9994
   133    3   O          7.495388    3.724397    9.313118     -1.65      15.9994
   134    3   O          5.316516    9.132545    3.950874     -1.65      15.9994
   135    3   O          1.250102    2.921919    3.584158     -1.65      15.9994
   136    3   O         11.720594   10.124853    9.408545     -1.65      15.9994
   137    4   Li        -0.584682   -4.708486    8.772567      1.00       6.9410
   138    4   Li         8.855175   -0.735789    7.809657      1.00       6.9410
   139    4   Li         0.738139   -2.097351    8.834081      1.00       6.9410
   140    4   Li         5.276900   -2.466230   12.238822      1.00       6.9410
   141    4   Li        12.112545    4.312327   -2.306610      1.00       6.9410
   142    4   Li        11.991483    7.665973    9.015309      1.00       6.9410
   143    4   Li        -1.238195   10.362576    7.504175      1.00       6.9410
   144    4   Li         2.357836   -0.909984   -2.060707      1.00       6.9410
   145    4   Li         8.995511    5.507213   -8.095199      1.00       6.9410
   146    4   Li         5.716455   11.118532    4.356126      1.00       6.9410
   147    4   Li        11.921505    5.429870   10.452837      1.00       6.9410
   148    4   Li        -1.341424   -2.599975    7.327524      1.00       6.9410
   149    4   Li        -3.188892    5.256423    7.249880      1.00       6.9410
   150    4   Li         1.910072    6.245608    2.366777      1.00       6.9410
   151    4   Li         5.584159   -4.579955   10.796346      1.00       6.9410
   152    4   Li         8.231214   10.981637    6.177236      1.00       6.9410
   153    4   Li         7.779347    9.102552   12.170818      1.00       6.9410
   154    4   Li         4.041141    7.449879    7.425205      1.00       6.9410
   155    4   Li        11.715680    3.739462    5.290495      1.00       6.9410
   156    4   Li        14.158843   -2.715676   14.394050      1.00       6.9410
   157    4   Li         1.274386   10.577794    0.947981      1.00       6.9410
   158    4   Li         1.400313    8.892313    7.416117      1.00       6.9410
   159    4   Li         9.884067    4.800842    6.255838      1.00       6.9410
   160    4   Li         6.560066    2.244850    8.472107      1.00       6.9410
   161    4   Li         4.723149   13.050331    3.245965      1.00       6.9410
   162    4   Li         1.022924    4.998445    4.088117      1.00       6.9410
   163    4   Li        14.603300    8.642295    7.369919      1.00       6.9410
   164    4   Li        16.542968    7.554301    7.141516      1.00       6.9410
   165    4   Li        -2.249066   -7.315681    8.271172      1.00       6.9410
   166    4   Li         3.831312    1.232798    5.121909      1.00       6.9410
   167    4   Li         7.008282    9.159304    4.810582      1.00       6.9410
   168    4   Li         7.285064    8.971945   -1.348330      1.00       6.9410
   169    4   Li         4.751066    6.498178    9.930139      1.00       6.9410
   170    4   Li         7.484605   14.907601    8.822019      1.00       6.9410
   171    4   Li         2.547685   12.049329   11.598028      1.00       6.9410
   172    4   Li        14.058085   11.821433    9.346876      1.00       6.9410
   173    4   Li        12.860825    9.909109    8.026172      1.00       6.9410
   174    4   Li         0.669765    3.286726   -1.436648      1.00       6.9410
   175    4   Li         2.345232    7.576862    4.476946      1.00       6.9410
   176    4   Li        14.991375    1.144404    9.122074      1.00       6.9410
   177    4   Li         0.437881   11.261964    8.849082      1.00       6.9410
   178    4   Li         5.708929    8.290286   10.890202      1.00       6.9410
   179    4   Li         5.723139   -2.228626    4.352962      1.00       6.9410
   180    4   Li        -1.813624    4.139735    5.631291      1.00       6.9410
   181    4   Li        -3.383589    1.707094   12.881467      1.00       6.9410
   182    4   Li        11.000231    4.075017   -7.123773      1.00       6.9410
   183    4   Li         5.926171    2.064950    2.144551      1.00       6.9410
   184    4   Li         7.711949    3.874439    7.332579      1.00       6.9410
   185    4   Li         8.712581    7.585646    1.582703      1.00       6.9410
   186    4   Li         4.747091    8.600806    5.618091      1.00       6.9410
   187    4   Li        11.068524    2.466323   12.358974      1.00       6.9410
   188    4   Li        10.941394   10.775817    7.167933      1.00       6.9410
   189    4   Li         3.076364    4.796549   -0.212357      1.00       6.9410
   190    4   Li         7.368334    4.510892    2.275774      1.00       6.9410
   191    4   Li        -2.690324   11.917937    4.922277      1.00       6.9410
   192    4   Li         4.399183   -0.931817    1.567941      1.00       6.9410
   193    1   La        14.613461   -0.231660    3.459007      2.50     138.9055
   194    1   La        24.572878    0.040098    9.759600      2.50     138.9055
   195    1   La        18.006966   -0.135241    9.768018      2.50     138.9055
   196    1   La        21.156752   -0.022534    3.175114      2.50     138.9055
   197    1   La        24.599597    6.327329    3.427158      2.50     138.9055
   198    1   La        14.808587    6.308506    9.805186      2.50     138.9055
   199    1   La        21.200748    6.474875    9.690051      2.50     138.9055
   200    1   La        17.919367    6.490445    3.217461      2.50     138.9055
   201    1   La        16.195403    1.623257    0.064971      2.50     138.9055
   202    1   La        23.015837   11.445002    0.046012      2.50     138.9055
   203    1   La        22.791834    4.799557   -0.140979      2.50     138.9055
   204    1   La        16.166224    8.289353   -0.007256      2.50     138.9055
   205    1   La        16.383991   11.450019    6.552641      2.50     138.9055
   206    1   La        22.820911    1.618332    6.567001      2.50     138.9055
   207    1   La        23.014110    8.108733    6.568201      2.50     138.9055
   208    1   La        16.418977    4.861097    6.410968      2.50     138.9055
   209    1   La        12.959864    3.124791    1.288177      2.50     138.9055
   210    1   La        13.038469    9.635925   11.400148      2.50     138.9055
   211    1   La        12.930503    9.855318    4.975947      2.50     138.9055
   212    1   La        12.907565    3.403807    8.339262      2.50     138.9055
   213    1   La        19.797912    3.041245   11.828845      2.50     138.9055
   214    1   La        19.636734    9.769104    1.699505      2.50     138.9055
   215    1   La        19.586674    9.701454    7.965869      2.50     138.9055
   216    1   La        19.581780    3.156243    4.635074      2.50     138.9055
   217    2   Zr        13.010021   -0.241236   -0.021883      2.65      91.2240
   218    2   Zr        19.542069    0.043852    6.442638      2.65      91.2240
   219    2   Zr        13.043618    6.416674    6.291629      2.65      91.2240
   220    2   Zr        19.420113    6.364989   -0.107631      2.65      91.2240
   221    2   Zr        22.666462    3.157725    3.193234      2.65      91.2240
   222    2   Zr        16.425298    9.716720    9.780777      2.65      91.2240
   223    2   Zr        22.786749    9.750292    9.761834      2.65      91.2240
   224    2   Zr        16.059706    3.221530    3.281841      2.65      91.2240
   225    2   Zr        16.360769    3.097438    9.919009      2.65      91.2240
   226    2   Zr        22.927625    9.590410    3.232995      2.65      91.2240
   227    2   Zr        16.283353    9.872650    3.163786      2.65      91.2240
   228    2   Zr        22.916271    3.174424    9.689631      2.65      91.2240
   229    2   Zr        19.630947    6.388589    6.469430      2.65      91.2240
   230    2   Zr        13.162209    6.501733   -0.038605      2.65      91.2240
   231    2   Zr        19.483007   -0.119994   -0.134333      2.65      91.2240
   232    2   Zr        12.998345   -0.090343    6.590710      2.65      91.2240
   233    3   O         25.923236    0.791288    2.182869     -1.65      15.9994
   234    3   O         13.581791   12.083988   10.986255     -1.65      15.9994
   235    3   O         20.113145   12.294719    8.488931     -1.65      15.9994
   236    3   O         19.166945    0.632134    4.327605     -1.65      15.9994
   237    3   O         13.393939    7.276216    4.410168     -1.65      15.9994
   238    3   O         25.664467    5.619338    8.390197     -1.65      15.9994
   239    3   O         19.311983    5.820677   11.086085     -1.65      15.9994
   240    3   O         20.098097    7.352100    2.138495     -1.65      15.9994
   241    3   O         14.734251   13.020369    0.534610     -1.65      15.9994
   242    3   O         24.268529    0.426287   12.243026     -1.65      15.9994
   243    3   O         21.727365    6.950665   12.283761     -1.65      15.9994
   244    3   O         17.593978    6.510374    0.555060     -1.65      15.9994
   245    3   O         17.626706    0.419314    7.269708     -1.65      15.9994
   246    3   O         21.754283   12.483493    5.978456     -1.65      15.9994
   247    3   O         24.051058    6.129162    5.851170     -1.65      15.9994
   248    3   O         15.001476    6.791207    6.921050     -1.65      15.9994
   249    3   O         13.654439    1.801003   12.715075     -1.65      15.9994
   250    3   O         25.649723   10.919814    0.522859     -1.65      15.9994
   251    3   O         25.563340    8.433320    7.103659     -1.65      15.9994
   252    3   O         13.601165    4.369182    6.042517     -1.65      15.9994
   253    3   O         20.334892    4.523525    0.627645     -1.65      15.9994
   254    3   O         18.935616    8.568779   12.896866     -1.65      15.9994
   255    3   O         18.950590   10.996391    6.110065     -1.65      15.9994
   256    3   O         20.105969    2.007323    6.654105     -1.65      15.9994
   257    3   O         23.701092    2.684108    1.494635     -1.65      15.9994
   258    3   O         15.688147   10.187355   11.726669     -1.65      15.9994
   259    3   O         22.097921    9.978239    7.782450     -1.65      15.9994
   260    3   O         17.265724    2.819175    5.421493     -1.65      15.9994
   261    3   O         17.190423    3.620774   11.895218     -1.65      15.9994
   262    3   O         22.339506    9.276086    1.302027     -1.65      15.9994
   263    3   O         15.630316    9.311101    5.350651     -1.65      15.9994
   264    3   O         23.696266    3.494822    7.695376     -1.65      15.9994
   265    3   O         22.471315    5.158103    2.584462     -1.65      15.9994
   266    3   O         16.841581    7.577661   10.581315     -1.65      15.9994
   267    3   O         16.725229   11.797744    3.841645     -1.65      15.9994
   268    3   O         22.438970    1.293451    8.812450     -1.65      15.9994
   269    3   O         23.415110    7.813190    9.151303     -1.65      15.9994
   270    3   O         15.685316    5.155189    4.101243     -1.65      15.9994
   271    3   O         16.091251    1.017334   10.658630     -1.65      15.9994
   272    3   O         23.456474   11.684726    2.811943     -1.65      15.9994
   273    3   O         24.736531    3.954438    3.597419     -1.65      15.9994
   274    3   O         14.488979    8.902885    9.372986     -1.65      15.9994
   275    3   O         18.409341    2.468682    9.510763     -1.65      15.9994
   276    3   O         21.091544   10.455084    3.688142     -1.65      15.9994
   277    3   O         14.282206   10.285404    2.924790     -1.65      15.9994
   278    3   O         24.982559    2.490161    9.883181     -1.65      15.9994
   279    3   O         20.857261    8.925522   10.108384     -1.65      15.9994
   280    3   O         17.883604    4.065562    2.760552     -1.65      15.9994
   281    3   O         19.170275    7.380619    8.475513     -1.65      15.9994
   282    3   O         20.023659    5.594010    4.239995     -1.65      15.9994
   283    3   O         13.229916    5.755463    1.889412     -1.65      15.9994
   284    3   O         25.909795    7.411700   10.998439     -1.65      15.9994
   285    3   O         19.876910    0.558041   11.227695     -1.65      15.9994
   286    3   O         19.319491   12.032250    2.051405     -1.65      15.9994
   287    3   O         25.788127   12.285326    4.571528     -1.65      15.9994
   288    3   O         13.411506    0.606800    8.465032     -1.65      15.9994
   289    3   O         21.538100    5.983252    7.153970     -1.65      15.9994
   290    3   O         17.711541    6.927281    5.672984     -1.65      15.9994
   291    3   O         15.116380    0.144968    5.726603     -1.65      15.9994
   292    3   O         24.333704   12.493023    7.297070     -1.65      15.9994
   293    3   O         24.175309    6.857660    0.446854     -1.65      15.9994
   294    3   O         15.068353    6.195937   12.397647     -1.65      15.9994
   295    3   O         17.718767   12.838622   12.357985     -1.65      15.9994
   296    3   O         21.458005    0.060971    0.609358     -1.65      15.9994
   297    3   O         20.355741    8.278235    5.914070     -1.65      15.9994
   298    3   O         18.855499    4.536663    6.860400     -1.65      15.9994
   299    3   O         18.852914    2.024682    0.340411     -1.65      15.9994
   300    3   O         20.391993   10.988464   12.839622     -1.65      15.9994
   301    3   O         13.975032   11.116847    6.745997     -1.65      15.9994
   302    3   O         25.344787    1.908963    5.970453     -1.65      15.9994
   303    3   O         25.531590    4.364896   12.378784     -1.65      15.9994
   304    3   O         13.595275    8.631326    0.426144     -1.65      15.9994
   305    3   O         17.105668    9.455985    7.824830     -1.65      15.9994
   306    3   O         22.037716    3.705712    5.125717     -1.65      15.9994
   307    3   O         15.321192    3.571367    1.332597     -1.65      15.9994
   308    3   O         23.445309    9.453521   11.987479     -1.65      15.9994
   309    3   O         23.512054   10.011855    5.366899     -1.65      15.9994
   310    3   O         15.280846    2.722208    7.938369     -1.65      15.9994
   311    3   O         22.115151    2.846063   11.673892     -1.65      15.9994
   312    3   O         17.143769   10.162926    1.105182     -1.65      15.9994
   313    3   O         15.850154   11.839214    9.048716     -1.65      15.9994
   314    3   O         23.105955    1.335179    4.070322     -1.65      15.9994
   315    3   O         23.251652    5.259053   10.544565     -1.65      15.9994
   316    3   O         15.850076    7.811402    2.689783     -1.65      15.9994
   317    3   O         16.627492    1.341240    2.482655     -1.65      15.9994
   318    3   O         22.367926   11.647098   10.160806     -1.65      15.9994
   319    3   O         22.630610    7.573818    3.943457     -1.65      15.9994
   320    3   O         16.602076    5.013650    9.005805     -1.65      15.9994
   321    3   O         18.323818   10.624700   10.344124     -1.65      15.9994
   322    3   O         20.712843    2.366574    2.532311     -1.65      15.9994
   323    3   O         25.026670    8.985433    2.790413     -1.65      15.9994
   324    3   O         14.427713    3.839119   10.310354     -1.65      15.9994
   325    3   O         20.831540    3.775821    9.010851     -1.65      15.9994
   326    3   O         18.280981    9.053683    3.742498     -1.65      15.9994
   327    3   O         14.263004    2.516105    3.995067     -1.65      15.9994
   328    3   O         24.884556   10.477988    9.411221     -1.65      15.9994
   329    4   Li        16.221526    1.564270    6.538434      1.00       6.9410
   330    4   Li        17.705750    6.444970    9.397567      1.00       6.9410
   331    4   Li        18.653494    1.266042   15.801190      1.00       6.9410
   332    4   Li        20.367377    1.856111    8.596382      1.00       6.9410
   333    4   Li        23.008225    8.097516   -0.101268      1.00       6.9410
   334    4   Li        16.562042   11.566360   13.183255      1.00       6.9410
   335    4   Li        15.279255    7.594417    4.849949      1.00       6.9410
   336    4   Li        21.890179    7.203665    1.885053      1.00       6.9410
   337    4   Li        16.319057   11.389653   -0.020428      1.00       6.9410
   338    4   Li        11.321367    6.638088   -3.176315      1.00       6.9410
   339    4   Li        27.599624    3.970984   12.167812      1.00       6.9410
   340    4   Li        11.354920   -0.186696    3.090492      1.00       6.9410
   341    4   Li        10.555347   12.104759    4.873785      1.00       6.9410
   342    4   Li        13.677111    4.393539    4.173880      1.00       6.9410
   343    4   Li        18.981800    4.262034    8.778198      1.00       6.9410
   344    4   Li        17.466513    8.741716    5.501267      1.00       6.9410
   345    4   Li        21.963636   18.825979    4.752342      1.00       6.9410
   346    4   Li        18.863062    8.295626   10.339249      1.00       6.9410
   347    4   Li        25.572121    4.336947   10.401674      1.00       6.9410
   348    4   Li        23.620115    0.518787   15.103373      1.00       6.9410
   349    4   Li        16.612388   21.248495    6.603785      1.00       6.9410
   350    4   Li        22.516208   11.841297    7.556778      1.00       6.9410
   351    4   Li        15.222495   -0.846297   11.046411      1.00       6.9410
   352    4   Li        21.331563    0.133058   10.203726      1.00       6.9410
   353    4   Li        13.924256    8.326403    2.529510      1.00       6.9410
   354    4   Li        14.304800    2.415338    6.004341      1.00       6.9410
   355    4   Li        25.478470    8.634529    9.099284      1.00       6.9410
   356    4   Li        25.514928   10.823038    2.413756      1.00       6.9410
   357    4   Li        13.975651   -1.247730    8.886864      1.00       6.9410
   358    4   Li        20.691442   17.324802    7.401154      1.00       6.9410
   359    4   Li        18.619471   10.196574   -0.935712      1.00       6.9410
   360    4   Li        24.861122    8.670944    1.000862      1.00       6.9410
   361    4   Li        18.399194   10.301160   12.120135      1.00       6.9410
   362    4   Li        21.659526   10.678708    5.777071      1.00       6.9410
   363    4   Li        13.935115   14.752386   10.287190      1.00       6.9410
   364    4   Li        26.835027    1.816859   10.758134      1.00       6.9410
   365    4   Li        22.060171    5.582325    4.304759      1.00       6.9410
   366    4   Li        19.669225    9.665185    4.792088      1.00       6.9410
   367    4   Li        14.711743    6.008232    2.997403      1.00       6.9410
   368    4   Li        28.384873    0.997732    7.438962      1.00       6.9410
   369    4   Li        15.614914   13.409462    8.384980      1.00       6.9410
   370    4   Li        19.061033   18.414143    8.761991      1.00       6.9410
   371    4   Li        20.767195    8.823674   -1.208356      1.00       6.9410
   372    4   Li        12.243318    1.494876    4.062758      1.00       6.9410
   373    4   Li        13.195629    2.890305   11.143548      1.00       6.9410
   374    4   Li        24.522654   13.275407    3.264350      1.00       6.9410
   375    4   Li        23.883868   -0.715193    4.681433      1.00       6.9410
   376    4   Li        15.565287   12.094203   11.504096      1.00       6.9410
   377    4   Li        20.372862    7.538671    3.938418      1.00       6.9410
   378    4   Li        17.805022   12.858582    2.673732      1.00       6.9410
   379    4   Li        25.210533   -1.598872   15.624698      1.00       6.9410
   380    4   Li        24.299386    6.164337    9.293183      1.00       6.9410
   381    4   Li        17.177130    5.693936   -2.044122      1.00       6.9410
   382    4   Li        24.922657    2.617262   12.342525      1.00       6.9410
   383    4   Li        18.610707   11.679959    4.324483      1.00       6.9410
   384    4   Li        10.692485   -0.927393    5.142451      1.00       6.9410
   385    1   La         1.585364   13.136526    3.252371      2.50     138.9055
   386    1   La        11.348915   12.998190   10.010602      2.50     138.9055
   387    1   La         4.960845   13.087065    9.656806      2.50     138.9055
   388    1   La         7.941901   13.193194    3.268690      2.50     138.9055
   389    1   La        11.422205   19.626035    3.241326      2.50     138.9055
   390    1   La         1.528973   19.776669    9.901953      2.50     138.9055
   391    1   La         8.198921   19.656447    9.738653      2.50     138.9055
   392    1   La         4.785832   19.742064    3.397337      2.50     138.9055
   393    1   La         3.105981   14.794155    0.107299      2.50     138.9055
   394    1   La         9.894485   24.491119   -0.165130      2.50     138.9055
   395    1   La         9.774725   17.933434    0.009814      2.50     138.9055
   396    1   La         3.176740   21.185208   -0.067923      2.50     138.9055
   397    1   La         3.045154   24.648131    6.541237      2.50     138.9055
   398    1   La         9.843205   14.620240    6.453705      2.50     138.9055
   399    1   La         9.933006   21.309136    6.588002      2.50     138.9055
   400    1   La         3.172910   18.177831    6.804730      2.50     138.9055
   401    1   La        -0.120898   16.194848    1.609045      2.50     138.9055
   402    1   La        -0.247913   23.026161   11.488230      2.50     138.9055
   403    1   La        -0.139919   22.911750    4.625148      2.50     138.9055
   404    1   La         0.095213   16.399657    8.161049      2.50     138.9055
   405    1   La         6.645707   16.383676   11.506388      2.50     138.9055
   406    1   La         6.673422   22.885196    1.449640      2.50     138.9055
   407    1   La         6.681161   23.204190    8.279185      2.50     138.9055
   408    1   La         6.368194   16.374073    5.132894      2.50     138.9055
   409    2   Zr        -0.052578   13.004317    0.033750      2.65      91.2240
   410    2   Zr         6.487889   13.076477    6.630265      2.65      91.2240
   411    2   Zr        -0.176385   19.733368    6.362547      2.65      91.2240
   412    2   Zr         6.435952   19.800014   -0.087825      2.65      91.2240
   413    2   Zr         9.585685   16.500735    3.200316      2.65      91.2240
   414    2   Zr         3.161863   22.830584    9.764783      2.65      91.2240
   415    2   Zr         9.779218   23.026027    9.827352      2.65      91.2240
   416    2   Zr         3.098945   16.447768    3.361064      2.65      91.2240
   417    2   Zr         3.254781   16.410912    9.906452      2.65      91.2240
   418    2   Zr         9.863075   22.889639    3.201082      2.65      91.2240
   419    2   Zr         3.194426   23.142934    3.203507      2.65      91.2240
   420    2   Zr         9.779639   16.293855    9.813894      2.65      91.2240
   421    2   Zr         6.583601   19.540663    6.571397      2.65      91.2240
   422    2   Zr        -0.088010   19.485795   -0.114161      2.65      91.2240
   423    2   Zr         6.430741   13.287044    0.056358      2.65      91.2240
   424    2   Zr        -0.051193   13.146850    6.640353      2.65      91.2240
   425    3   O         12.405383   13.837015    1.800634     -1.65      15.9994
   426    3   O          0.206684   25.355490   11.196510     -1.65      15.9994
   427    3   O          6.631040   25.534956    8.524112     -1.65      15.9994
   428    3   O          6.016191   13.744533    4.565952     -1.65      15.9994
   429    3   O          0.314406   20.248210    4.574733     -1.65      15.9994
   430    3   O         12.525621   19.118915    8.387591     -1.65      15.9994
   431    3   O          6.213287   18.880518   10.853963     -1.65      15.9994
   432    3   O          6.370488   20.670767    1.805971     -1.65      15.9994
   433    3   O          1.552489   26.066922    0.396180     -1.65      15.9994
   434    3   O         11.292483   13.388304   12.275776     -1.65      15.9994
   435    3   O          8.623195   20.046865   12.378153     -1.65      15.9994
   436    3   O          4.326495   19.165755    0.732338     -1.65      15.9994
   437    3   O          4.463021   13.332736    7.221218     -1.65      15.9994
   438    3   O          8.401851   25.820746    5.792705     -1.65      15.9994
   439    3   O         11.025538   19.318824    5.705785     -1.65      15.9994
   440    3   O          1.867319   20.233989    7.158614     -1.65      15.9994
   441    3   O          0.586422   15.069665   12.767277     -1.65      15.9994
   442    3   O         12.364418   24.117443    0.199803     -1.65      15.9994
   443    3   O         12.204358   21.703364    6.830879     -1.65      15.9994
   444    3   O          0.603687   17.660978    6.043879     -1.65      15.9994
   445    3   O          6.935230   17.687384    0.368129     -1.65      15.9994
   446    3   O          5.370306   21.670570   12.657226     -1.65      15.9994
   447    3   O          5.566394   24.193207    6.362758     -1.65      15.9994
   448    3   O          7.096450   15.081194    6.946441     -1.65      15.9994
   449    3   O         10.030295   16.028097    1.347536     -1.65      15.9994
   450    3   O          2.377407   23.453680   11.698582     -1.65      15.9994
   451    3   O          9.054445   23.676028    7.971903     -1.65      15.9994
   452    3   O          3.846235   15.761059    5.252134     -1.65      15.9994
   453    3   O          4.055078   16.604642   11.857511     -1.65      15.9994
   454    3   O          8.917348   22.499754    1.217551     -1.65      15.9994
   455    3   O          2.205268   22.557179    5.100659     -1.65      15.9994
   456    3   O         10.675550   16.529989    7.774738     -1.65      15.9994
   457    3   O          9.134451   18.380579    2.409486     -1.65      15.9994
   458    3   O          3.517346   20.887261   10.255190     -1.65      15.9994
   459    3   O          3.914659   24.832856    3.871282     -1.65      15.9994
   460    3   O          9.137290   14.476969    9.076346     -1.65      15.9994
   461    3   O          9.916238   21.122139    9.006627     -1.65      15.9994
   462    3   O          2.786423   18.292161    4.376346     -1.65      15.9994
   463    3   O          2.783008   14.123837   10.562368     -1.65      15.9994
   464    3   O         10.431531   24.783788    2.440840     -1.65      15.9994
   465    3   O         11.677591   17.149956    3.613786     -1.65      15.9994
   466    3   O          1.157691   22.176739    9.415564     -1.65      15.9994
   467    3   O          4.963382   15.620313    9.059569     -1.65      15.9994
   468    3   O          7.826982   23.858387    3.759377     -1.65      15.9994
   469    3   O          1.260775   24.036506    2.631014     -1.65      15.9994
   470    3   O         11.604255   15.315171   10.257576     -1.65      15.9994
   471    3   O          7.706857   22.107890   10.603988     -1.65      15.9994
   472    3   O          5.206846   17.401158    2.867541     -1.65      15.9994
   473    3   O          6.183647   20.529863    8.442417     -1.65      15.9994
   474    3   O          7.099533   19.114894    4.483190     -1.65      15.9994
   475    3   O          0.373793   18.940850    1.838190     -1.65      15.9994
   476    3   O         12.393086   20.560031   11.119612     -1.65      15.9994
   477    3   O          6.623148   13.912094   11.009355     -1.65      15.9994
   478    3   O          6.177806   25.329402    1.959864     -1.65      15.9994
   479    3   O         12.553643   25.360001    4.586690     -1.65      15.9994
   480    3   O          0.313768   13.544545    8.568260     -1.65      15.9994
   481    3   O          8.553995   19.064297    7.056132     -1.65      15.9994
   482    3   O          4.609108   20.351870    5.991084     -1.65      15.9994
   483    3   O          1.897744   13.532879    5.721057     -1.65      15.9994
   484    3   O         11.055880   25.939783    7.044183     -1.65      15.9994
   485    3   O         11.124004   19.879830    0.853908     -1.65      15.9994
   486    3   O          1.853596   18.948103   12.600154     -1.65      15.9994
   487    3   O          4.559493   25.623077   12.557479     -1.65      15.9994
   488    3   O          8.500584   13.464570    0.698986     -1.65      15.9994
   489    3   O          7.481118   22.010853    6.243837     -1.65      15.9994
   490    3   O          5.468395   17.792707    6.751202     -1.65      15.9994
   491    3   O          5.685432   15.179029    0.481588     -1.65      15.9994
   492    3   O          7.094039   24.214268   12.792657     -1.65      15.9994
   493    3   O          0.586096   24.184622    6.811691     -1.65      15.9994
   494    3   O         12.389725   14.871249    5.869674     -1.65      15.9994
   495    3   O         12.455798   17.560895   12.532996     -1.65      15.9994
   496    3   O          0.694684   21.398431    0.176145     -1.65      15.9994
   497    3   O          3.684023   22.524135    7.722120     -1.65      15.9994
   498    3   O          8.956068   16.574873    5.253897     -1.65      15.9994
   499    3   O          2.539957   16.721605    1.493041     -1.65      15.9994
   500    3   O         10.616332   22.685027   11.618149     -1.65      15.9994
   501    3   O         10.584872   23.353443    5.261918     -1.65      15.9994
   502    3   O          2.422992   15.793671    7.837599     -1.65      15.9994
   503    3   O          8.930692   16.000464   11.721139     -1.65      15.9994
   504    3   O          4.006030   23.456006    1.235422     -1.65      15.9994
   505    3   O          2.654301   24.745574    8.941559     -1.65      15.9994
   506    3   O          9.956933   14.425798    3.684313     -1.65      15.9994
   507    3   O         10.162918   18.418151   10.309343     -1.65      15.9994
   508    3   O          2.861134   21.010754    2.818449     -1.65      15.9994
   509    3   O          3.566349   14.456533    2.536774     -1.65      15.9994
   510    3   O          9.038335   24.781767   10.599671     -1.65      15.9994
   511    3   O          9.439122   20.906202    3.869096     -1.65      15.9994
   512    3   O          3.189195   18.371158    9.175343     -1.65      15.9994
   513    3   O          5.064524   23.598762   10.266737     -1.65      15.9994
   514    3   O          7.439702   15.924309    2.963174     -1.65      15.9994
   515    3   O         11.839642   22.247530    2.817422     -1.65      15.9994
   516    3   O          1.156557   16.930216   10.361371     -1.65      15.9994
   517    3   O          7.728687   17.051478    9.150024     -1.65      15.9994
   518    3   O          5.234166   22.169359    4.012869     -1.65      15.9994
   519    3   O          1.321203   15.641487    3.860596     -1.65      15.9994
   520    3   O         11.630827   23.921531    9.156164     -1.65      15.9994
   521    4   Li         3.811037   13.785537    5.221961      1.00       6.9410
   522    4   Li         7.347665   11.238133   10.408141      1.00       6.9410
   523    4   Li         5.000406   10.764485   12.085410      1.00       6.9410
   524    4   Li        11.366228    8.619107    0.716200      1.00       6.9410
   525    4   Li         9.613513   21.070309    0.609885      1.00       6.9410
   526    4   Li         2.259184   20.100568    4.746972      1.00       6.9410
   527    4   Li        -0.289227   29.103772    4.429928      1.00       6.9410
   528    4   Li         7.672935   16.165767    1.238149      1.00       6.9410
   529    4   Li        14.121723   23.558332    1.034137      1.00       6.9410
   530    4   Li         0.886867   24.598005   -4.081236      1.00       6.9410
   531    4   Li        10.591693   20.682341   11.701922      1.00       6.9410
   532    4   Li         2.295932   18.545014    1.336965      1.00       6.9410
   533    4   Li         1.235957   22.245543    7.221216      1.00       6.9410
   534    4   Li         4.875853   17.312252    0.954693      1.00       6.9410
   535    4   Li         8.983668   18.827451    5.132891      1.00       6.9410
   536    4   Li        10.830071   24.158093    7.288996      1.00       6.9410
   537    4   Li        -1.004356   22.476310   14.377501      1.00       6.9410
   538    4   Li         1.219673   20.278784    2.608014      1.00       6.9410
   539    4   Li        10.679395   18.574477    7.577392      1.00       6.9410
   540    4   Li         9.924180   14.530340   12.656836      1.00       6.9410
   541    4   Li        -0.974017   24.627520    2.442425      1.00       6.9410
   542    4   Li         7.061531   21.840460    4.368403      1.00       6.9410
   543    4   Li         8.185913   13.452356   10.487177      1.00       6.9410
   544    4   Li         8.330938   17.249374    7.156198      1.00       6.9410
   545    4   Li         7.828760   32.691678    3.458456      1.00       6.9410
   546    4   Li         0.122925   22.464100    1.485194      1.00       6.9410
   547    4   Li        20.727222   23.669578    5.575724      1.00       6.9410
   548    4   Li        10.299826   27.223345    1.264307      1.00       6.9410
   549    4   Li         2.495228   13.993196    7.627704      1.00       6.9410
   550    4   Li         3.229702   21.492925    6.265433      1.00       6.9410
   551    4   Li         8.254228   19.986688    2.808561      1.00       6.9410
   552    4   Li        12.445728   24.043720    2.288765      1.00       6.9410
   553    4   Li         6.136386   16.867262    8.276579      1.00       6.9410
   554    4   Li         8.646970   23.832046    5.726385      1.00       6.9410
   555    4   Li         4.281250   28.686241    7.235928      1.00       6.9410
   556    4   Li        12.843853   22.954333    8.062302      1.00       6.9410
   557    4   Li         4.340326   15.499254    7.023192      1.00       6.9410
   558    4   Li         8.905294   25.376683   -4.519164      1.00       6.9410
   559    4   Li         5.336156   15.268968    2.310840      1.00       6.9410
   560    4   Li         9.135378   20.800567   14.311124      1.00       6.9410
   561    4   Li        -4.367550   25.168771    8.178287      1.00       6.9410
   562    4   Li         8.439438   22.288169   12.381276      1.00       6.9410
   563    4   Li        11.685227   12.552297    2.900108      1.00       6.9410
   564    4   Li         0.728753   18.002035    4.158659      1.00       6.9410
   565    4   Li         4.309758   20.844160    8.093012      1.00       6.9410
   566    4   Li        11.757622   22.059060    0.852832      1.00       6.9410
   567    4   Li         8.904839   12.098187    8.655805      1.00       6.9410
   568    4   Li         3.343514   24.499186   12.975118      1.00       6.9410
   569    4   Li         8.617558   22.100218   -0.934304      1.00       6.9410
   570    4   Li         1.857981   28.780549    5.452282      1.00       6.9410
   571    4   Li         8.202218   15.334457   13.992932      1.00       6.9410
   572    4   Li        11.498115   22.014310   13.967767      1.00       6.9410
   573    4   Li         4.167276   20.322437   -4.786114      1.00       6.9410
   574    4   Li        11.412351   17.349020    5.380154      1.00       6.9410
   575    4   Li         5.493183   30.817834    8.525492      1.00       6.9410
   576    4   Li         1.911342   15.475145    5.822656      1.00       6.9410
   577    1   La        14.717594   12.915063    2.833549      2.50     138.9055
   578    1   La        24.549159   12.891351    9.750128      2.50     138.9055
   579    1   La        18.144957   13.127645    9.871127      2.50     138.9055
   580    1   La        21.390428   12.945942    3.163258      2.50     138.9055
   581    1   La        24.392279   19.575426    3.160798      2.50     138.9055
   582    1   La        14.591351   19.930048    9.819147      2.50     138.9055
   583    1   La        21.282949   19.790687   10.081296      2.50     138.9055
   584    1   La        18.179948   19.506506    3.126826      2.50     138.9055
   585    1   La        16.178362   14.633639   -0.297285      2.50     138.9055
   586    1   La        22.812963   24.610220   -0.233838      2.50     138.9055
   587    1   La        22.789594   17.887061   -0.022468      2.50     138.9055
   588    1   La        16.379752   21.065187    0.003570      2.50     138.9055
   589    1   La        16.524744   24.705352    6.731370      2.50     138.9055
   590    1   La        22.902650   14.621449    6.520921      2.50     138.9055
   591    1   La        22.845097   21.469630    6.444424      2.50     138.9055
   592    1   La        16.485041   18.136225    6.485329      2.50     138.9055
   593    1   La        13.115937   16.149394    1.391108      2.50     138.9055
   594    1   La        12.980468   22.900643   11.334470      2.50     138.9055
   595    1   La        13.141675   23.047423    4.900662      2.50     138.9055
   596    1   La        13.130945   16.235388    7.792815      2.50     138.9055
   597    1   La        19.716967   16.585310   11.485253      2.50     138.9055
   598    1   La        19.589355   23.058048    1.426117      2.50     138.9055
   599    1   La        19.578996   23.030897    8.059839      2.50     138.9055
   600    1   La        19.566495   16.406577    4.753048      2.50     138.9055
   601    2   Zr        12.700756   13.055591   -0.232619      2.65      91.2240
   602    2   Zr        19.760907   13.023946    6.638068      2.65      91.2240
   603    2   Zr        13.244289   19.674904    6.462058      2.65      91.2240
   604    2   Zr        19.576583   19.667066   -0.016332      2.65      91.2240
   605    2   Zr        22.928842   16.333800    3.237190      2.65      91.2240
   606    2   Zr        16.400291   23.050649    9.911600      2.65      91.2240
   607    2   Zr        22.915022   23.053334    9.686939      2.65      91.2240
   608    2   Zr        16.156417   16.288634    3.376210      2.65      91.2240
   609    2   Zr        16.593700   16.467000    9.851922      2.65      91.2240
   610    2   Zr        23.108061   22.924853    3.174223      2.65      91.2240
   611    2   Zr        16.316194   22.918304    3.173764      2.65      91.2240
   612    2   Zr        22.855763   16.475980    9.724289      2.65      91.2240
   613    2   Zr        19.823903   19.896021    6.235503      2.65      91.2240
   614    2   Zr        13.071862   19.547904    0.012100      2.65      91.2240
   615    2   Zr        19.550793   12.949223    0.026307      2.65      91.2240
   616    2   Zr        13.271801   13.016896    6.591354      2.65      91.2240
   617    3   O         25.772737   13.922048    1.865699     -1.65      15.9994
   618    3   O         13.433063   25.315903   10.884715     -1.65      15.9994
   619    3   O         19.925588   25.373954    8.517228     -1.65      15.9994
   620    3   O         19.100487   13.626033    4.391992     -1.65      15.9994
   621    3   O         13.519872   20.326854    4.408467     -1.65      15.9994
   622    3   O         25.799993   19.008661    8.401449     -1.65      15.9994
   623    3   O         19.542763   18.988848   11.206276     -1.65      15.9994
   624    3   O         20.043280   20.561052    1.929563     -1.65      15.9994
   625    3   O         14.873165   25.426999    0.937320     -1.65      15.9994
   626    3   O         24.242290   13.384945   12.191443     -1.65      15.9994
   627    3   O         21.646627   20.304724   12.585839     -1.65      15.9994
   628    3   O         17.681694   19.247066    0.893479     -1.65      15.9994
   629    3   O         17.762978   13.590250    7.195222     -1.65      15.9994
   630    3   O         21.472668   25.676874    5.789848     -1.65      15.9994
   631    3   O         24.275979   19.110891    5.686930     -1.65      15.9994
   632    3   O         15.051713   20.083622    7.094317     -1.65      15.9994
   633    3   O         13.821452   15.117686   12.500379     -1.65      15.9994
   634    3   O         25.349342   24.091857    0.606193     -1.65      15.9994
   635    3   O         25.280078   21.636709    6.837075     -1.65      15.9994
   636    3   O         13.457160   17.635995    5.771623     -1.65      15.9994
   637    3   O         20.195650   17.614126    0.435482     -1.65      15.9994
   638    3   O         18.936938   21.941120   12.809387     -1.65      15.9994
   639    3   O         19.000061   24.297688    6.151396     -1.65      15.9994
   640    3   O         20.352476   14.983310    6.851109     -1.65      15.9994
   641    3   O         23.611254   16.169302    1.285614     -1.65      15.9994
   642    3   O         15.766470   23.525326   11.710655     -1.65      15.9994
   643    3   O         22.043225   23.483783    7.652696     -1.65      15.9994
   644    3   O         17.158821   15.908595    5.149933     -1.65      15.9994
   645    3   O         17.268010   17.106896   11.576881     -1.65      15.9994
   646    3   O         22.340907   22.491336    0.851973     -1.65      15.9994
   647    3   O         15.754280   22.624445    5.351355     -1.65      15.9994
   648    3   O         23.619720   16.987921    7.944000     -1.65      15.9994
   649    3   O         22.518560   18.527525    2.673476     -1.65      15.9994
   650    3   O         16.960330   21.014366   10.340070     -1.65      15.9994
   651    3   O         16.831126   24.893538    3.877846     -1.65      15.9994
   652    3   O         22.672325   14.531804    9.196179     -1.65      15.9994
   653    3   O         23.191220   20.942933    8.895659     -1.65      15.9994
   654    3   O         15.937923   18.317900    3.938691     -1.65      15.9994
   655    3   O         15.780491   14.444944   10.636767     -1.65      15.9994
   656    3   O         23.389395   25.254066    2.488841     -1.65      15.9994
   657    3   O         24.865146   17.036126    3.659275     -1.65      15.9994
   658    3   O         14.413143   22.192511    9.328584     -1.65      15.9994
   659    3   O         18.382089   15.402725    9.721096     -1.65      15.9994
   660    3   O         20.986019   23.740483    3.352269     -1.65      15.9994
   661    3   O         14.333009   23.633582    2.917072     -1.65      15.9994
   662    3   O         24.957266   15.803455   10.193012     -1.65      15.9994
   663    3   O         20.892470   22.213034   10.082341     -1.65      15.9994
   664    3   O         18.180998   16.708359    2.721935     -1.65      15.9994
   665    3   O         19.572963   20.515483    8.412520     -1.65      15.9994
   666    3   O         20.067299   19.026931    4.212008     -1.65      15.9994
   667    3   O         13.542385   18.943043    1.932683     -1.65      15.9994
   668    3   O         25.690666   20.207850   11.184584     -1.65      15.9994
   669    3   O         20.377560   13.778340   11.235786     -1.65      15.9994
   670    3   O         19.025223   25.401811    1.835935     -1.65      15.9994
   671    3   O         25.679542   25.324947    4.383181     -1.65      15.9994
   672    3   O         13.615260   13.778241    8.565569     -1.65      15.9994
   673    3   O         21.674654   19.281153    6.837625     -1.65      15.9994
   674    3   O         17.639221   20.059999    5.541929     -1.65      15.9994
   675    3   O         15.214537   13.350609    6.012225     -1.65      15.9994
   676    3   O         24.121532   25.701927    6.932530     -1.65      15.9994
   677    3   O         24.150714   20.012442    0.425479     -1.65      15.9994
   678    3   O         14.951040   19.743389   12.080117     -1.65      15.9994
   679    3   O         17.806870   25.596092   12.637416     -1.65      15.9994
   680    3   O         21.511452   13.389318    0.929580     -1.65      15.9994
   681    3   O         20.251032   21.912053    5.811324     -1.65      15.9994
   682    3   O         19.116329   17.898334    6.765956     -1.65      15.9994
   683    3   O         18.953931   15.150050    0.503309     -1.65      15.9994
   684    3   O         20.488606   24.293071   12.795490     -1.65      15.9994
   685    3   O         13.767634   24.235999    6.906675     -1.65      15.9994
   686    3   O         25.408195   15.140013    6.249458     -1.65      15.9994
   687    3   O         25.154439   17.747539   12.771383     -1.65      15.9994
   688    3   O         13.633049   21.634307    0.607929     -1.65      15.9994
   689    3   O         17.138199   22.432226    8.035754     -1.65      15.9994
   690    3   O         21.915590   16.928975    5.157981     -1.65      15.9994
   691    3   O         15.315470   16.724888    1.199432     -1.65      15.9994
   692    3   O         23.550698   22.783602   11.715439     -1.65      15.9994
   693    3   O         23.750324   23.413535    4.994464     -1.65      15.9994
   694    3   O         15.652486   16.140136    7.701931     -1.65      15.9994
   695    3   O         21.934881   16.254672   11.970271     -1.65      15.9994
   696    3   O         17.216536   23.325776    0.879360     -1.65      15.9994
   697    3   O         16.063877   24.828098    8.908450     -1.65      15.9994
   698    3   O         23.171579   14.418553    4.043962     -1.65      15.9994
   699    3   O         23.149371   18.460321   10.406163     -1.65      15.9994
   700    3   O         15.988194   20.896096    2.539065     -1.65      15.9994
   701    3   O         16.660859   14.340093    2.500399     -1.65      15.9994
   702    3   O         22.404297   24.877994   10.128291     -1.65      15.9994
   703    3   O         22.368471   21.168986    3.992291     -1.65      15.9994
   704    3   O         17.167984   18.417537    8.780264     -1.65      15.9994
   705    3   O         18.386248   23.631517   10.178645     -1.65      15.9994
   706    3   O         20.996783   15.789752    2.668399     -1.65      15.9994
   707    3   O         24.866643   21.915725    2.807233     -1.65      15.9994
   708    3   O         14.451535   17.394622   10.079514     -1.65      15.9994
   709    3   O         20.855918   17.151753    9.368948     -1.65      15.9994
   710    3   O         18.408127   22.539272    3.519815     -1.65      15.9994
   711    3   O         14.271823   15.450068    3.576820     -1.65      15.9994
   712    3   O         24.943244   23.511201    9.176539     -1.65      15.9994
   713    4   Li        17.047715   13.917226    4.764276      1.00       6.9410
   714    4   Li        20.027096   15.427175    8.810115      1.00       6.9410
   715    4   Li        13.976491   18.414028    4.056166      1.00       6.9410
   716    4   Li        21.348031   20.030068    3.051831      1.00       6.9410
   717    4   Li        20.230379   22.002919    3.898475      1.00       6.9410
   718    4   Li        15.930046   18.226597   12.978032      1.00       6.9410
   719    4   Li        17.678909   20.531468    8.735710      1.00       6.9410
   720    4   Li        18.163806   17.063411    0.991595      1.00       6.9410
   721    4   Li        16.345203   17.773225   -0.211286      1.00       6.9410
   722    4   Li        20.587347   31.622264    2.511452      1.00       6.9410
   723    4   Li        25.017861   17.295850    5.457296      1.00       6.9410
   724    4   Li        12.029031   14.531036    3.857215      1.00       6.9410
   725    4   Li         7.206729   24.324524   10.810554      1.00       6.9410
   726    4   Li        14.832612   22.364465    7.339102      1.00       6.9410
   727    4   Li        22.548469   20.635147    0.728143      1.00       6.9410
   728    4   Li        17.100529   25.311093    1.836233      1.00       6.9410
   729    4   Li        17.651493   19.264058   10.691148      1.00       6.9410
   730    4   Li        18.382915   23.692229   12.028245      1.00       6.9410
   731    4   Li        30.161503   18.405198   -0.688734      1.00       6.9410
   732    4   Li        27.716265   16.937118   12.404563      1.00       6.9410
   733    4   Li        14.713105   30.496747   -1.055769      1.00       6.9410
   734    4   Li        17.385045   26.788427    4.029361      1.00       6.9410
   735    4   Li        13.227770   16.270776    4.691051      1.00       6.9410
   736    4   Li        24.211880   15.202870   12.559136      1.00       6.9410
   737    4   Li        18.415920   28.742393    7.178075      1.00       6.9410
   738    4   Li        15.691177   20.589204    4.403920      1.00       6.9410
   739    4   Li        31.540529   22.307937    5.802184      1.00       6.9410
   740    4   Li        28.651211   24.054355    0.640110      1.00       6.9410
   741    4   Li        12.006791   15.602051   12.064065      1.00       6.9410
   742    4   Li        20.492696   24.532793   10.896726      1.00       6.9410
   743    4   Li        24.186232   15.330359   -1.199500      1.00       6.9410
   744    4   Li        15.422813   18.984437    1.950795      1.00       6.9410
   745    4   Li        17.789432   17.670288   14.237002      1.00       6.9410
   746    4   Li        24.010284   20.042483   10.287534      1.00       6.9410
   747    4   Li        11.942352   24.757316   15.288908      1.00       6.9410
   748    4   Li        21.346688   22.319819   12.071034      1.00       6.9410
   749    4   Li        18.323710   15.504644    7.341257      1.00       6.9410
   750    4   Li        18.616335   24.741266    3.992254      1.00       6.9410
   751    4   Li        13.685752   21.229708    2.440938      1.00       6.9410
   752    4   Li        25.410511   17.601424   10.836113      1.00       6.9410
   753    4   Li        11.410120   20.425466    9.664823      1.00       6.9410
   754    4   Li        21.121222   30.138901    6.817637      1.00       6.9410
   755    4   Li        20.943533   15.431347    0.877734      1.00       6.9410
   756    4   Li        18.561066   22.347421    5.256797      1.00       6.9410
   757    4   Li        12.261557   17.924379   10.140155      1.00       6.9410
   758    4   Li        24.182379   22.062173    0.545261      1.00       6.9410
   759    4   Li        25.933283   15.505048    4.659238      1.00       6.9410
   760    4   Li        20.387252   31.497341   15.528783      1.00       6.9410
   761    4   Li        20.498431   17.536339    2.320042      1.00       6.9410
   762    4   Li        18.701943   27.670967    2.238860      1.00       6.9410
   763    4   Li        27.695560   13.210125    9.903962      1.00       6.9410
   764    4   Li        23.046349   17.983789    6.450700      1.00       6.9410
   765    4   Li        19.170531   17.896567   -4.064361      1.00       6.9410
   766    4   Li        18.630239   14.949650    2.331449      1.00       6.9410
   767    4   Li        22.733206   24.719939    6.493144      1.00       6.9410
   768    4   Li        16.067719   14.768470    6.399941      1.00       6.9410
   769    1   La         1.742084   -0.079114   16.652834      2.50     138.9055
   770    1   La        11.694472   -0.159484   22.806613      2.50     138.9055
   771    1   La         5.205807   -0.044184   22.970223      2.50     138.9055
   772    1   La         8.205834   -0.035757   16.401168      2.50     138.9055
   773    1   La        11.273543    6.367281   16.340072      2.50     138.9055
   774    1   La         1.626194    6.551349   22.871522      2.50     138.9055
   775    1   La         8.191136    6.337028   22.618331      2.50     138.9055
   776    1   La         4.911850    6.580917   16.417776      2.50     138.9055
   777    1   La         3.262292    1.324446   13.188374      2.50     138.9055
   778    1   La         9.824208   11.473960   13.095054      2.50     138.9055
   779    1   La         9.683614    4.947032   12.974086      2.50     138.9055
   780    1   La         3.271458    8.004195   13.135333      2.50     138.9055
   781    1   La         3.188718   11.407500   19.480842      2.50     138.9055
   782    1   La         9.937015    1.345009   19.643078      2.50     138.9055
   783    1   La         9.472580    8.504436   19.739537      2.50     138.9055
   784    1   La         3.256839    4.889546   19.569988      2.50     138.9055
   785    1   La        -0.082145    3.181829   14.890174      2.50     138.9055
   786    1   La         0.017385    9.848744   24.696432      2.50     138.9055
   787    1   La        -0.189779    9.885527   18.048803      2.50     138.9055
   788    1   La        -0.149719    3.260851   21.508267      2.50     138.9055
   789    1   La         6.598835    3.177697   24.572828      2.50     138.9055
   790    1   La         6.524254    9.762202   14.844035      2.50     138.9055
   791    1   La         6.241739    9.808337   21.462843      2.50     138.9055
   792    1   La         6.470004    3.449219   18.146783      2.50     138.9055
   793    2   Zr        -0.241404    0.016712   13.165144      2.65      91.2240
   794    2   Zr         6.572917   -0.086616   19.661549      2.65      91.2240
   795    2   Zr        -0.010439    6.509840   19.405028      2.65      91.2240
   796    2   Zr         6.493883    6.379623   13.372895      2.65      91.2240
   797    2   Zr         9.772063    3.318761   16.377436      2.65      91.2240
   798    2   Zr         3.216279    9.810803   23.090388      2.65      91.2240
   799    2   Zr         9.724676    9.839878   22.920651      2.65      91.2240
   800    2   Zr         3.136126    3.201141   16.518919      2.65      91.2240
   801    2   Zr         3.051887    3.262532   22.854958      2.65      91.2240
   802    2   Zr         9.660583    9.881849   16.353493      2.65      91.2240
   803    2   Zr         3.360855    9.754532   16.368801      2.65      91.2240
   804    2   Zr         9.672970    3.166362   22.785947      2.65      91.2240
   805    2   Zr         6.267762    6.576384   19.603662      2.65      91.2240
   806    2   Zr         0.063369    6.439989   13.166898      2.65      91.2240
   807    2   Zr         6.458415   -0.017597   13.102940      2.65      91.2240
   808    2   Zr         0.053982    0.026633   19.618358      2.65      91.2240
   809    3   O         12.372959    0.590817   14.875085     -1.65      15.9994
   810    3   O          0.337095   12.346597   24.420294     -1.65      15.9994
   811    3   O          6.699687   12.221642   21.882857     -1.65      15.9994
   812    3   O          6.016517    0.836575   17.959606     -1.65      15.9994
   813    3   O          0.270634    7.323584   17.515675     -1.65      15.9994
   814    3   O         12.317294    5.686474   21.359407     -1.65      15.9994
   815    3   O          5.949730    5.825733   24.219030     -1.65      15.9994
   816    3   O          6.730338    7.084797   15.247429     -1.65      15.9994
   817    3   O          1.890787   12.638457   13.675822     -1.65      15.9994
   818    3   O         10.815905    0.267326   25.588765     -1.65      15.9994
   819    3   O          8.323715    7.075054   25.642965     -1.65      15.9994
   820    3   O          4.519715    5.608994   13.907649     -1.65      15.9994
   821    3   O          4.846721    0.095926   20.473317     -1.65      15.9994
   822    3   O          8.304484   12.575961   18.935709     -1.65      15.9994
   823    3   O         10.771011    5.813500   18.757137     -1.65      15.9994
   824    3   O          1.855402    6.989789   20.085102     -1.65      15.9994
   825    3   O          0.304965    1.777049   25.744996     -1.65      15.9994
   826    3   O         12.415889   10.961696   13.394713     -1.65      15.9994
   827    3   O         12.247131    8.440941   20.041897     -1.65      15.9994
   828    3   O          0.683121    4.499188   19.228664     -1.65      15.9994
   829    3   O          7.304263    4.365559   13.481164     -1.65      15.9994
   830    3   O          5.527076    8.484328   25.771727     -1.65      15.9994
   831    3   O          5.612814   11.193855   19.407923     -1.65      15.9994
   832    3   O          7.406316    2.151290   20.196565     -1.65      15.9994
   833    3   O         10.478337    2.874545   14.307615     -1.65      15.9994
   834    3   O          2.369704   10.062007   24.906962     -1.65      15.9994
   835    3   O          9.063289   10.321987   21.104086     -1.65      15.9994
   836    3   O          3.807963    2.833285   18.534370     -1.65      15.9994
   837    3   O          3.811388    3.638814   24.751419     -1.65      15.9994
   838    3   O          8.925130    9.684277   14.251225     -1.65      15.9994
   839    3   O          2.424503    9.520505   18.310537     -1.65      15.9994
   840    3   O         10.422607    3.606871   20.783078     -1.65      15.9994
   841    3   O          9.183438    5.352083   15.667089     -1.65      15.9994
   842    3   O          3.680427    7.734578   23.506215     -1.65      15.9994
   843    3   O          3.812125   11.780086   16.780545     -1.65      15.9994
[...]

 -------------------------------------------------------------------------------
 -                                                                             -
 -                         MESSAGE PASSING PERFORMANCE                         -
 -                                                                             -
 -------------------------------------------------------------------------------

 ROUTINE             CALLS      AVE VOLUME [Bytes]
 MP_Group                2
 MP_Bcast               30                      5.
 MP_Allreduce          464                   6522.
 MP_Sync                 1
 -------------------------------------------------------------------------------


 -------------------------------------------------------------------------------
 -                                                                             -
 -                           R E F E R E N C E S                               -
 -                                                                             -
 -------------------------------------------------------------------------------
 
 CP2K version 6.1, the CP2K developers group (2018).
 CP2K is freely available from https://www.cp2k.org/ .

 Schuett, Ole; Messmer, Peter; Hutter, Juerg; VandeVondele, Joost. 
 Electronic Structure Calculations on Graphics Processing Units, John Wiley & Sons, Ltd, 173-190 (2016). 
 GPU-Accelerated Sparse Matrix-Matrix Multiplication for Linear Scaling Density Functional Theory.
 http://dx.doi.org/10.1002/9781118670712.ch8


 Borstnik, U; VandeVondele, J; Weber, V; Hutter, J. 
 PARALLEL COMPUTING, 40 (5-6), 47-58 (2014). 
 Sparse matrix multiplication: The distributed block-compressed sparse
 row library.
 http://dx.doi.org/10.1016/j.parco.2014.03.012


 Hutter, J; Iannuzzi, M; Schiffmann, F; VandeVondele, J. 
 WILEY INTERDISCIPLINARY REVIEWS-COMPUTATIONAL MOLECULAR SCIENCE, 4 (1), 15-25 (2014). 
 CP2K: atomistic simulations of condensed matter systems.
 http://dx.doi.org/10.1002/wcms.1159


 Frigo, M; Johnson, SG. 
 PROCEEDINGS OF THE IEEE, 93 (2), 216-231 (2005). 
 The design and implementation of FFTW3.
 http://dx.doi.org/10.1109/JPROC.2004.840301


 DARDEN, T; YORK, D; PEDERSEN, L. 
 JOURNAL OF CHEMICAL PHYSICS, 98 (12), 10089-10092 (1993). 
 PARTICLE MESH EWALD - AN N.LOG(N) METHOD FOR EWALD SUMS IN LARGE SYSTEMS.
 http://dx.doi.org/10.1063/1.464397


 NOSE, S. JOURNAL OF CHEMICAL PHYSICS, 81 (1), 511-519 (1984). 
 A UNIFIED FORMULATION OF THE CONSTANT TEMPERATURE MOLECULAR-DYNAMICS
 METHODS.
 http://dx.doi.org/10.1063/1.447334


 NOSE, S. MOLECULAR PHYSICS, 52 (2), 255-268 (1984). 
 A MOLECULAR-DYNAMICS METHOD FOR SIMULATIONS IN THE CANONICAL ENSEMBLE.
 http://dx.doi.org/10.1080/00268978400101201


 -------------------------------------------------------------------------------
 -                                                                             -
 -                                T I M I N G                                  -
 -                                                                             -
 -------------------------------------------------------------------------------
 SUBROUTINE                       CALLS  ASD         SELF TIME        TOTAL TIME
                                MAXIMUM       AVERAGE  MAXIMUM  AVERAGE  MAXIMUM
 CP2K                                 1  1.0    0.505    0.505    6.734    6.734
 qs_mol_dyn_low                       1  2.0    0.142    0.142    4.855    4.855
 fist_calc_energy_force              21  4.0    0.192    0.192    3.403    3.403
 velocity_verlet                     20  3.0    0.039    0.039    2.803    2.803
 force_nonbond                       21  5.0    1.724    1.724    1.724    1.724
 fist_create_force_env                1  2.0    0.008    0.008    1.226    1.226
 fist_init                            1  3.0    0.118    0.118    1.218    1.218
 pme_evaluate                        21  5.0    0.558    0.558    1.101    1.101
 rot_ana                              1  3.0    0.001    0.001    0.796    0.796
 diamat_all                           1  4.0    0.795    0.795    0.795    0.795
 fist_init_subsys                     1  4.0    0.080    0.080    0.552    0.552
 fft3d_s                          32362  6.0    0.445    0.445    0.484    0.484
 ewald_pw_init                        1  5.0    0.371    0.371    0.456    0.456
 build_fist_neighbor_lists            5  6.2    0.008    0.008    0.366    0.366
 list_control                        21  5.0    0.010    0.010    0.356    0.356
 build_neighbor_lists                 5  7.2    0.261    0.261    0.283    0.283
 topology_control                     1  4.0    0.056    0.056    0.280    0.280
 force_field_control                  1  4.0    0.043    0.043    0.269    0.269
 md_output                           20  3.0    0.000    0.000    0.264    0.264
 md_write_output                     21  4.0    0.058    0.058    0.220    0.220
 force_field_pack                     1  5.0    0.020    0.020    0.188    0.188
 write_trajectory                    84  5.0    0.019    0.019    0.162    0.162
 write_particle_coordinates          42  6.0    0.143    0.143    0.143    0.143
 initialize_nhc_part_xy               1  3.0    0.024    0.024    0.140    0.140
 connectivity_control                 1  5.0    0.029    0.029    0.115    0.115
 force_field_pack_splines             2  6.0    0.047    0.047    0.104    0.104
 pw_poisson_solve                    21  6.0    0.038    0.038    0.100    0.100
 dbcsr_finalize_lib                   1  2.0    0.086    0.086    0.094    0.094
 sort_neighbor_lists                  5  7.2    0.075    0.075    0.075    0.075
 topology_generate_bond               1  6.0    0.000    0.000    0.072    0.072
 write_restart                       20  4.0    0.014    0.014    0.071    0.071
 pw_grid_setup                        2  6.0    0.006    0.006    0.068    0.068
 nhc_to_particle_mapping_yz           1  4.0    0.012    0.012    0.067    0.067
 pw_grid_setup_internal               2  7.0    0.028    0.028    0.062    0.062
 pw_transfer                        168  6.6    0.004    0.004    0.060    0.060
 update_input                         1  5.0    0.017    0.017    0.057    0.057
 fft_wrap_pw1pw2                    105  7.4    0.006    0.006    0.057    0.057
 topology_connectivity_pack           1  5.0    0.000    0.000    0.053    0.053
 fft_wrap_pw1pw2_10                 105  8.4    0.001    0.001    0.051    0.051
 setup_nhc_thermostat                 1  5.0    0.033    0.033    0.050    0.050
 get_nonbond_storage                  2  7.0    0.013    0.013    0.049    0.049
 init_nhc_variables                   1  4.0    0.048    0.048    0.048    0.048
 get_fft_scratch                  32362  7.0    0.039    0.039    0.039    0.039
 set_potparm_index                    6  8.0    0.022    0.022    0.035    0.035
 topology_generate_bond_2             1  7.0    0.035    0.035    0.035    0.035
 pw_grid_distribute                   2  8.0    0.033    0.033    0.034    0.034
 update_motion                        1  6.0    0.000    0.000    0.033    0.033
 coordinate_control                   1  5.0    0.000    0.000    0.029    0.029
 coordinate_control_READ_COORDI       1  6.0    0.009    0.009    0.029    0.029
 topology_coordinate_pack             1  5.0    0.000    0.000    0.026    0.026
 force_field_unique_bond              1  6.0    0.025    0.025    0.025    0.025
 update_motion_THERMOSTAT_PARTI       1  7.0    0.025    0.025    0.025    0.025
 topology_connectivity_pack_5         1  6.0    0.023    0.023    0.023    0.023
 fist_neighbor_init                   5  8.2    0.022    0.022    0.022    0.022
 force_field_qeff_output              1  5.0    0.021    0.021    0.021    0.021
 read_coordinate_xyz                  1  7.0    0.017    0.017    0.020    0.020
 topology_generate_bond_3             1  7.0    0.000    0.000    0.019    0.019
 clean_intra_force_kind               1  5.0    0.018    0.018    0.018    0.018
 force_field_pack_nonbond             1  6.0    0.017    0.017    0.017    0.017
 thermostat_mapping_region            1  6.0    0.000    0.000    0.017    0.017
 massive_list_generate                1  7.0    0.001    0.001    0.016    0.016
 pw_pool_give_back_pw               231  6.3    0.016    0.016    0.016    0.016
 mp_max_i                           339  1.6    0.015    0.015    0.015    0.015
 bonded_correct_gaussian             21  5.0    0.015    0.015    0.015    0.015
 topology_coordinate_pack_10          1  6.0    0.015    0.015    0.015    0.015
 mp_bcast_iv                          6  7.2    0.015    0.015    0.015    0.015
 write_symmetry                       1  5.0    0.014    0.014    0.014    0.014
 topology_connectivity_pack_10        1  6.0    0.014    0.014    0.014    0.014
 init_genpot                          8  8.8    0.013    0.013    0.013    0.013
 lnhc_particles                      40  4.0    0.013    0.013    0.013    0.013
 topology_generate_bond_6             1  7.0    0.012    0.012    0.012    0.012
 mp_sum_l                            20  2.0    0.012    0.012    0.012    0.012
 ewald_pw_release                     3  4.0    0.011    0.011    0.011    0.011
 topology_connectivity_pack_11        1  6.0    0.011    0.011    0.011    0.011
 spline_nonbond_control               2  7.0    0.009    0.009    0.009    0.009
 topology_set_atm_mass                1  6.0    0.009    0.009    0.009    0.009
 topology_coordinate_pack_11          1  6.0    0.009    0.009    0.009    0.009
 external_control                    20  3.0    0.008    0.008    0.009    0.009
 force_field_unique_tors              1  6.0    0.009    0.009    0.009    0.009
 rs_grid_create_descriptor            1  6.0    0.008    0.008    0.008    0.008
 pw_poisson_set                       2  5.5    0.008    0.008    0.008    0.008
 density_nonbond                     21  5.0    0.008    0.008    0.008    0.008
 update_motion_COUNTERS               1  7.0    0.008    0.008    0.008    0.008
 force_field_unique_bend              1  6.0    0.008    0.008    0.008    0.008
 setup_velocities                     1  3.0    0.000    0.000    0.008    0.008
 initialize_velocities                1  4.0    0.008    0.008    0.008    0.008
 mp_max_r                             1  3.0    0.008    0.008    0.008    0.008
 add_external_potential              21  4.0    0.008    0.008    0.008    0.008
 update_subsys                        1  6.0    0.004    0.004    0.007    0.007
 mp_sum_dv                          109  3.8    0.006    0.006    0.006    0.006
 connectivity_control_check_ele       1  6.0    0.005    0.005    0.005    0.005
 restraint_control                   21  4.0    0.003    0.003    0.005    0.005
 force_intra_control                 21  5.0    0.004    0.004    0.004    0.004
 rs_grid_zero                        21  6.0    0.004    0.004    0.004    0.004
 topology_generate_bond_4             1  7.0    0.003    0.003    0.004    0.004
 force_field_pack_tors                1  6.0    0.003    0.003    0.003    0.003
 parser_read_line                  1538  8.0    0.000    0.000    0.003    0.003
 section_coord_val_set                1  7.0    0.003    0.003    0.003    0.003
 parser_read_line_low                 2  9.0    0.002    0.002    0.002    0.002
 topology_connectivity_pack_6         1  6.0    0.002    0.002    0.002    0.002
 create_local_fixd_list              21  5.0    0.002    0.002    0.002    0.002
 mp_sum_dm                           83  5.0    0.002    0.002    0.002    0.002
 pw_scatter_s                        84  9.2    0.002    0.002    0.002    0.002
 fix_atom_control                    21  4.0    0.001    0.001    0.001    0.001
 topology_connectivity_pack_2         1  6.0    0.001    0.001    0.001    0.001
 rs_pw_transfer                      84  6.0    0.000    0.000    0.001    0.001
 check_generate_mol                   1  8.0    0.001    0.001    0.001    0.001
 topology_coordinate_pack_89          1  6.0    0.001    0.001    0.001    0.001
 distribute_molecules_1d              1  5.0    0.001    0.001    0.001    0.001
 mp_cart_create                       2  9.0    0.001    0.001    0.001    0.001
 topology_generate_bond_1             1  7.0    0.001    0.001    0.001    0.001
 topology_connectivity_pack_3         1  6.0    0.001    0.001    0.001    0.001
 rs_pw_transfer_RS2PW_10             21  7.0    0.001    0.001    0.001    0.001
 topology_coordinate_pack_1           1  6.0    0.001    0.001    0.001    0.001
 mapping_region_evaluate              1  7.0    0.001    0.001    0.001    0.001
 pw_copy                            126  7.5    0.000    0.000    0.000    0.000
 mp_bcast_b                          20  4.0    0.000    0.000    0.000    0.000
 force_field_pack_shell               1  6.0    0.000    0.000    0.000    0.000
 mp_bcast_av                        251  1.0    0.000    0.000    0.000    0.000
 comvel_control                      20  3.0    0.000    0.000    0.000    0.000
 topology_connectivity_pack_1         1  6.0    0.000    0.000    0.000    0.000
 rs_pw_transfer_PW2RS_10             63  7.0    0.000    0.000    0.000    0.000
 pw_derive                           63  7.0    0.000    0.000    0.000    0.000
 topology_generate_onfo               1  6.0    0.000    0.000    0.000    0.000
 topology_connectivity_pack_14        1  6.0    0.000    0.000    0.000    0.000
 section_velocity_val_set             1  7.0    0.000    0.000    0.000    0.000
 pw_grid_sort                         2  8.0    0.000    0.000    0.000    0.000
 remove_restart_info                  1  2.0    0.000    0.000    0.000    0.000
 mp_sum_d                           536  2.1    0.000    0.000    0.000    0.000
 topology_connectivity_pack_4         1  6.0    0.000    0.000    0.000    0.000
 write_particle_distances             1  5.0    0.000    0.000    0.000    0.000
 mp_maxloc_dv                       503  1.0    0.000    0.000    0.000    0.000
 metadyn_read                         1  2.0    0.000    0.000    0.000    0.000
 pw_gather_s                         21 10.0    0.000    0.000    0.000    0.000
 update_particle_set                 40  4.0    0.000    0.000    0.000    0.000
 read_binary_cs_coordinates           2  7.0    0.000    0.000    0.000    0.000
 write_structure_data                22  5.0    0.000    0.000    0.000    0.000
 topology_connectivity_pack_9         1  6.0    0.000    0.000    0.000    0.000
 rescale_forces                      21  4.0    0.000    0.000    0.000    0.000
 force_field_pack_bond                1  6.0    0.000    0.000    0.000    0.000
 force_field_pack_bend                1  6.0    0.000    0.000    0.000    0.000
 force_field_pack_ub                  1  6.0    0.000    0.000    0.000    0.000
 force_field_pack_impr                1  6.0    0.000    0.000    0.000    0.000
 force_field_pack_opbend              1  6.0    0.000    0.000    0.000    0.000
 topology_connectivity_pack_13        1  6.0    0.000    0.000    0.000    0.000
 topology_connectivity_pack_12        1  6.0    0.000    0.000    0.000    0.000
 temperature_control                 20  3.0    0.000    0.000    0.000    0.000
 force_field_unique_ub                1  6.0    0.000    0.000    0.000    0.000
 write_molecule_kind_set              1  5.0    0.000    0.000    0.000    0.000
 mp_comm_dup                          2  6.0    0.000    0.000    0.000    0.000
 topology_generate_molecule           1  6.0    0.000    0.000    0.000    0.000
 force_field_unique_opbend            1  6.0    0.000    0.000    0.000    0.000
 force_field_unique_impr              1  6.0    0.000    0.000    0.000    0.000
 pw_pool_create_pw                  232  6.3    0.000    0.000    0.000    0.000
 sort_shells                          2  9.0    0.000    0.000    0.000    0.000
 rs_grid_create                      85  6.0    0.000    0.000    0.000    0.000
 topology_molecules_check             1  6.0    0.000    0.000    0.000    0.000
 pw_grid_assign                       2  8.0    0.000    0.000    0.000    0.000
 mp_bcast_i                         252  2.0    0.000    0.000    0.000    0.000
 mp_sum_i                            22  4.8    0.000    0.000    0.000    0.000
 thermostat_mapping_region_low        1  7.0    0.000    0.000    0.000    0.000
 compute_averages                    20  5.0    0.000    0.000    0.000    0.000
 force_nonbond_manybody              21  5.0    0.000    0.000    0.000    0.000
 cp_result_copy                      20  5.0    0.000    0.000    0.000    0.000
 mp_allgather_i                       2  8.0    0.000    0.000    0.000    0.000
 force_field_pack_nonbond14           1  6.0    0.000    0.000    0.000    0.000
 cp_result_clean                     40  5.5    0.000    0.000    0.000    0.000
 pw_create                           13  6.4    0.000    0.000    0.000    0.000
 mp_comm_free                         4  3.0    0.000    0.000    0.000    0.000
 pw_poisson_rebuild                  21  7.0    0.000    0.000    0.000    0.000
 topology_coordinate_pack_3           1  6.0    0.000    0.000    0.000    0.000
 cp_result_value_p_reallocate        21  5.0    0.000    0.000    0.000    0.000
 mp_environ_l                       128  2.1    0.000    0.000    0.000    0.000
 topology_constraint_pack             1  5.0    0.000    0.000    0.000    0.000
 energy_manybody                     21  5.0    0.000    0.000    0.000    0.000
 force_field_pack_charge              1  6.0    0.000    0.000    0.000    0.000
 topology_coordinate_pack_7a          1  6.0    0.000    0.000    0.000    0.000
 mp_max_d                            21  5.8    0.000    0.000    0.000    0.000
 cp_result_create                    21  5.0    0.000    0.000    0.000    0.000
 angvel_control                      20  3.0    0.000    0.000    0.000    0.000
 topology_constraint_pack_1           1  6.0    0.000    0.000    0.000    0.000
 update_motion_AVERAGES               1  7.0    0.000    0.000    0.000    0.000
 free_energy_evaluate                20  3.0    0.000    0.000    0.000    0.000
 force_field_pack_eicut               1  6.0    0.000    0.000    0.000    0.000
 mp_max_l                            22  2.0    0.000    0.000    0.000    0.000
 spline_env_create                    2  8.0    0.000    0.000    0.000    0.000
 cp_result_value_release             21  6.8    0.000    0.000    0.000    0.000
 check_cp2k_input                     1  2.0    0.000    0.000    0.000    0.000
 cp_result_release                   21  4.9    0.000    0.000    0.000    0.000
 read_topology_section                1  5.0    0.000    0.000    0.000    0.000
 read_binary_velocities               3  5.0    0.000    0.000    0.000    0.000
 topology_coordinate_pack_5           1  6.0    0.000    0.000    0.000    0.000
 topology_connectivity_pack_8         1  6.0    0.000    0.000    0.000    0.000
 metadyn_integrator                  20  4.0    0.000    0.000    0.000    0.000
 topology_coordinate_pack_6           1  6.0    0.000    0.000    0.000    0.000
 read_binary_coordinates              1  5.0    0.000    0.000    0.000    0.000
 initialize_cascade                   1  4.0    0.000    0.000    0.000    0.000
 -------------------------------------------------------------------------------

 The number of warnings for this run is : 0
 
 -------------------------------------------------------------------------------
  **** **** ******  **  PROGRAM ENDED AT                 2022-12-23 19:40:20.701
 ***** ** ***  *** **   PROGRAM RAN ON                                    r4i6n7
 **    ****   ******    PROGRAM RAN BY                                   sasakir
 ***** **    ** ** **   PROGRAM PROCESS ID                                129246
  **** **  *******  **  PROGRAM STOPPED IN /home/sasakir/apl/cp2kv6/cp2kccd/test
                                           _nemd/LLZO_ccd/set
