#     Step Nr.          Time[fs]        Kin.[a.u.]          Temp[K]            Pot.[a.u.]        Cons Qty[a.u.]        UsedTime[s]
         0            0.000000         7.291592328      1000.000000000      -799.230982091      -791.937806355         0.000000000
         1            2.000000         7.229489574       991.482964001      -799.164513281      -791.936926934         0.900724823
         2            4.000000         7.146116439       980.048817597      -799.076314790      -791.935629180         0.144634119
         3            6.000000         7.063449929       968.711580570      -798.988489359      -791.934052300         0.134497783
         4            8.000000         7.004405249       960.613941887      -798.924946866      -791.933215391         0.134395575
         5           10.000000         6.982340377       957.587871430      -798.898954127      -791.933053459         0.220102993
         6           12.000000         6.999037359       959.877766663      -798.911607959      -791.932902041         0.134940807
         7           14.000000         7.048731532       966.693037009      -798.957782889      -791.933413806         0.134594320
         8           16.000000         7.119681763       976.423453557      -799.025283047      -791.934140624         0.134397744
         9           18.000000         7.196334499       986.935935944      -799.097817490      -791.934344494         0.134573075
        10           20.000000         7.266088059       996.502235972      -799.162894737      -791.934128075         0.134327923
        11           22.000000         7.320939909      1004.024852181      -799.212532667      -791.933498073         0.134490865
        12           24.000000         7.354456472      1008.621456232      -799.240813863      -791.932951697         0.134433521
        13           26.000000         7.361897871      1009.642001410      -799.242754316      -791.932225185         0.218582431
        14           28.000000         7.340025363      1006.642312535      -799.215349995      -791.931540485         0.134831411
        15           30.000000         7.288545416       999.582133479      -799.157355968      -791.929946300         0.134541086
        16           32.000000         7.215036582       989.500819211      -799.076414178      -791.927521784         0.134412896
        17           34.000000         7.136486133       978.728076456      -798.990069482      -791.924854820         0.134537919
        18           36.000000         7.073881634       970.142228945      -798.919700711      -791.922375745         0.134358599
        19           38.000000         7.042402783       965.825085425      -798.881022116      -791.920656999         0.134462767
        20           40.000000         7.045349351       966.229190274      -798.877050943      -791.919441674         0.216302086
