    1536
 i =        0, time =        0.000, E =      -799.2309820910
 La         0.0010981559        0.0025108956        0.0015416718
 La        -0.0030256614        0.0053236666       -0.0000856806
 La         0.0002886014       -0.0012539686       -0.0033002388
 La         0.0002750216       -0.0028723234       -0.0007120668
 La         0.0002791608       -0.0009583058       -0.0003009598
 La        -0.0045615542        0.0032508367       -0.0000047896
 La        -0.0018301690        0.0024275844       -0.0009743875
 La        -0.0046346001       -0.0019372968       -0.0018793714
 La        -0.0029757626       -0.0004168650        0.0018976891
 La        -0.0005415994        0.0029189788       -0.0006772111
 La        -0.0019183833       -0.0017474565        0.0000711259
 La         0.0006940313        0.0006891907       -0.0026796023
 La         0.0014759561        0.0007082573        0.0015117105
 La        -0.0025678067        0.0001341552        0.0021032183
 La        -0.0036358912        0.0039712744       -0.0011034667
 La         0.0028408826        0.0017669381        0.0018295097
 La        -0.0015964702        0.0007950821       -0.0026863430
 La         0.0009988711       -0.0011409605        0.0012936751
 La        -0.0012937705       -0.0050847696       -0.0015437104
 La         0.0022246184        0.0026235042        0.0017815433
 La         0.0036192696       -0.0029139592       -0.0042927571
 La         0.0005153907        0.0029726907        0.0030707192
 La        -0.0015359918        0.0013985529        0.0010681154
 La         0.0015911281        0.0019993727        0.0023848372
 Zr        -0.0010097743       -0.0005071231       -0.0040771035
 Zr         0.0028822455       -0.0029849731       -0.0021049539
 Zr        -0.0035361989       -0.0002158916        0.0068546774
 Zr        -0.0023395001        0.0065299796       -0.0007306835
 Zr         0.0015215381        0.0005603928       -0.0062855622
 Zr        -0.0017032342       -0.0028515783        0.0046344651
 Zr         0.0007013940        0.0030535297       -0.0083063705
 Zr        -0.0003038913        0.0005494964        0.0011712645
 Zr         0.0047623604        0.0003765910       -0.0032681305
 Zr        -0.0015871174       -0.0042715008        0.0028756709
 Zr         0.0055909063        0.0007054482        0.0017660020
 Zr         0.0019263909       -0.0024799416        0.0008723829
 Zr        -0.0043410943       -0.0008209036       -0.0044175635
 Zr         0.0008108771        0.0015426435       -0.0031319688
 Zr        -0.0019000621       -0.0003445517       -0.0014913705
 Zr         0.0022888410       -0.0004881275        0.0010205772
  O        -0.0055597824        0.0048710209        0.0042639666
  O         0.0066864701        0.0116400967        0.0004476527
  O        -0.0065749741       -0.0013867218       -0.0018715709
  O        -0.0018558890        0.0114559858        0.0088064484
  O        -0.0046230649        0.0054387505        0.0041620280
  O         0.0106228948        0.0037679564        0.0019638495
  O         0.0041967177       -0.0030399249       -0.0035557017
  O         0.0128952895       -0.0001009737        0.0042400571
  O        -0.0051110934        0.0013364419       -0.0017262369
  O        -0.0072002739        0.0012997985       -0.0001938904
  O         0.0046930905       -0.0037148152        0.0074785395
  O        -0.0086462204        0.0036082741        0.0015379357
  O        -0.0126217065       -0.0120178718       -0.0112360777
  O         0.0106089994        0.0011052096       -0.0085522777
  O        -0.0025197987       -0.0022641042        0.0054030481
  O        -0.0143310723        0.0004550129       -0.0048145297
  O         0.0012257560        0.0035638196        0.0056640543
  O        -0.0028732739        0.0078334677        0.0033611474
  O        -0.0019727271       -0.0049707679       -0.0021157128
  O        -0.0051827385        0.0007566845       -0.0103945155
  O        -0.0004259781       -0.0045967400        0.0118377654
  O        -0.0060983983        0.0073736629       -0.0069571801
  O        -0.0095353325        0.0017539959       -0.0066543516
  O         0.0016594654       -0.0091472014        0.0038009809
  O         0.0004998630       -0.0016494689       -0.0074234415
  O         0.0095596734        0.0000286552        0.0023546950
  O         0.0059376712        0.0024398055       -0.0047553782
  O         0.0014432299       -0.0018155730        0.0034140792
  O        -0.0064831735        0.0083010096       -0.0006501073
  O         0.0088042535       -0.0043146567       -0.0026327007
  O         0.0049060142       -0.0112361140       -0.0025995484
  O         0.0093938259        0.0034902312        0.0015915811
  O        -0.0023823135        0.0105141947        0.0105472436
  O        -0.0017697023       -0.0080117353       -0.0109059189
  O         0.0112715755       -0.0070597866        0.0010456015
  O        -0.0013372312        0.0008193379        0.0006732327
  O        -0.0045236344        0.0055144272        0.0007252171
  O        -0.0042352658        0.0072747046       -0.0026632438
  O         0.0009857766        0.0018591798        0.0038867026
  O        -0.0034002104        0.0062365501        0.0094566402
  O         0.0176356857        0.0059240860       -0.0045383504
  O        -0.0033375683        0.0073103969       -0.0027693290
  O         0.0072358272        0.0041286979       -0.0024868551
  O        -0.0147546697       -0.0032264971        0.0050042422
  O        -0.0012224526        0.0021536151       -0.0005943995
  O         0.0034138131       -0.0016288026        0.0010100894
  O         0.0025179462        0.0107219632       -0.0002436822
  O         0.0055458212        0.0035203026        0.0031083873
  O         0.0044206405       -0.0020243278       -0.0028863679
  O        -0.0046972350       -0.0037536208       -0.0078159284
  O        -0.0121022775        0.0034631357        0.0056997314
  O        -0.0034280438       -0.0062418305        0.0070735488
  O         0.0043436185       -0.0021354014        0.0016234604
  O        -0.0045522141       -0.0017128525       -0.0035323589
  O        -0.0012294505        0.0002171731       -0.0157399501
  O         0.0039575968        0.0141364966        0.0145700636
  O         0.0046628888        0.0015338651        0.0166405528
  O        -0.0003706042       -0.0021527661       -0.0011191674
  O         0.0104294881        0.0050979870        0.0051816049
  O         0.0090174172        0.0028142446       -0.0039769956
  O         0.0078300425        0.0032273262       -0.0070374454
  O         0.0100071860        0.0159859520       -0.0043395536
  O         0.0008699165       -0.0013631132       -0.0077169763
  O         0.0015087020       -0.0017752376       -0.0082801632
  O         0.0138961752        0.0029630423       -0.0104388944
  O         0.0045069681       -0.0016976144       -0.0081468774
  O        -0.0041331398        0.0022798376       -0.0065752270
  O        -0.0062304916       -0.0041609546        0.0089197859
  O         0.0061670870       -0.0047827078        0.0057949318
  O         0.0020523114       -0.0053014969       -0.0023573281
  O        -0.0114421854        0.0103043132        0.0022894717
  O         0.0062491992       -0.0092850603       -0.0025978419
  O        -0.0104987343        0.0021767455       -0.0052069670
  O         0.0050264283       -0.0016790666       -0.0116943185
  O         0.0016615362        0.0022879388       -0.0009981566
  O        -0.0061755944        0.0083669841       -0.0077895685
  O         0.0056370723       -0.0087324669       -0.0013491651
  O        -0.0023869925        0.0062181672       -0.0007466540
  O        -0.0028729401       -0.0065671146       -0.0014600655
  O         0.0101813481        0.0062652329        0.0066710385
  O        -0.0128533232       -0.0085008823        0.0056322952
  O        -0.0097680668        0.0115386401        0.0031278979
  O        -0.0037380967        0.0085123159       -0.0041634350
  O        -0.0010796945       -0.0115731965       -0.0058842365
  O        -0.0104313481        0.0086746517        0.0025898576
  O        -0.0011662844       -0.0024728053        0.0087638230
  O        -0.0041985272        0.0016233041        0.0087050386
  O        -0.0069889578       -0.0019408854        0.0031098839
  O         0.0083303279       -0.0067428078       -0.0125798719
  O         0.0088107664       -0.0007820912        0.0140018577
  O         0.0054441282       -0.0193860474        0.0005551450
  O        -0.0014255341        0.0083811496        0.0031475327
  O         0.0115776504       -0.0010731627       -0.0113971427
  O        -0.0093666844       -0.0008771055        0.0016373672
  O         0.0001051322       -0.0006281093        0.0060414377
  O         0.0140065009        0.0037128739       -0.0054369154
 Li         0.0052235952        0.0007311390        0.0113383259
 Li        -0.0088963285        0.0097288159        0.0060085104
 Li        -0.0058622409        0.0209528145        0.0031978506
 Li         0.0043095882       -0.0167394499        0.0096415475
 Li        -0.0091778499        0.0007499964       -0.0146702797
 Li         0.0104570703       -0.0055264057        0.0054674575
 Li        -0.0099839945        0.0000862625       -0.0027244969
 Li         0.0113346103        0.0122019437       -0.0060235934
 Li        -0.0066199383       -0.0143275803       -0.0046009126
 Li        -0.0076762232        0.0177133214        0.0063448050
 Li        -0.0076853004       -0.0114308654        0.0111475524
 Li        -0.0008281341       -0.0048558759       -0.0092959340
 Li        -0.0039260003        0.0012359497        0.0131114771
 Li         0.0038930360        0.0126034039       -0.0102457560
 Li         0.0249755822       -0.0112041573        0.0016957387
 Li        -0.0022127966       -0.0095836618        0.0040019397
 Li        -0.0023086139        0.0047764936        0.0102405059
 Li         0.0020002523       -0.0216703037       -0.0003595856
 Li         0.0017596795       -0.0057881293       -0.0190096573
 Li        -0.0057217248        0.0027365826        0.0059040784
 Li         0.0057584208       -0.0021248180        0.0114186407
 Li         0.0102072935       -0.0030337756        0.0175910914
 Li        -0.0017101056        0.0087296876        0.0014070877
 Li        -0.0117721128       -0.0012830741        0.0241824086
 Li         0.0065326425       -0.0064096852        0.0097538712
 Li        -0.0103401853       -0.0268821228        0.0093767645
 Li        -0.0010090764       -0.0295649139       -0.0185672954
 Li         0.0085938222       -0.0180584104        0.0068055373
 Li        -0.0040783574       -0.0013716080        0.0061934568
 Li        -0.0022429829        0.0072854781        0.0051683271
 Li        -0.0032945639        0.0036134586        0.0077403866
 Li        -0.0045768170       -0.0066866256       -0.0123434314
 Li         0.0070394764        0.0141761524        0.0029205330
 Li         0.0204061547       -0.0007297390        0.0054778968
 Li         0.0159698197        0.0035919958       -0.0279406500
 Li        -0.0014108984       -0.0012806089        0.0190539711
 Li        -0.0095894959        0.0039181862        0.0135836437
 Li        -0.0226339863        0.0112763936       -0.0026592431
 Li        -0.0026012218        0.0151558361        0.0159564219
 Li        -0.0003272580        0.0033470039        0.0041499995
 Li         0.0125412627       -0.0137301904        0.0046956035
 Li        -0.0164244014        0.0002919528        0.0076841676
 Li        -0.0030949332        0.0153021085        0.0068664750
 Li        -0.0160822946        0.0022075890        0.0092482395
 Li        -0.0016425307       -0.0070212027        0.0039972806
 Li        -0.0013545712        0.0072918382        0.0007948089
 Li         0.0112437348       -0.0046589231        0.0011497212
 Li        -0.0105847921       -0.0109896100        0.0023250787
 Li        -0.0105420059        0.0027777038       -0.0091818356
 Li         0.0156661626        0.0171482867        0.0025065782
 Li        -0.0103816497        0.0006887940        0.0054448390
 Li        -0.0118448842       -0.0078252512        0.0114977253
 Li        -0.0171748633       -0.0012976528       -0.0147030778
 Li        -0.0096782048        0.0128597027       -0.0054475447
 Li         0.0042425777        0.0152395578        0.0077907360
 Li         0.0102919014       -0.0021387308        0.0022675258
 La         0.0001300569       -0.0004716744        0.0002388069
 La         0.0000397969       -0.0011977720        0.0007858818
 La         0.0004126095        0.0028356839        0.0006728259
 La         0.0001958313        0.0005723886       -0.0012095480
 La         0.0006269897        0.0010251637       -0.0003519565
 La        -0.0014646599       -0.0038533359        0.0032914449
 La        -0.0021518317       -0.0008633267       -0.0044029151
 La        -0.0045015688       -0.0003079502        0.0006363254
 La         0.0019033008        0.0012563718       -0.0041078682
 La         0.0008028728        0.0008150162       -0.0004394611
 La         0.0007509366        0.0017955422        0.0001805135
 La         0.0005999576        0.0020797427       -0.0016180824
 La        -0.0029801913        0.0018025894        0.0004500909
 La        -0.0063526675        0.0042745614       -0.0009907697
 La         0.0015469612        0.0023347733       -0.0009168730
 La         0.0047932147        0.0003423484        0.0022980453
 La        -0.0016902590       -0.0012941224        0.0006488417
 La        -0.0001595403       -0.0030133442        0.0007972551
 La        -0.0041018938       -0.0023430496       -0.0035309111
 La         0.0001349212        0.0002558521       -0.0001407338
 La        -0.0005588360       -0.0003876405        0.0020800254
 La        -0.0000851970       -0.0012466829       -0.0016713645
 La         0.0025071794        0.0005511530       -0.0020735205
 La         0.0003587739       -0.0002264913       -0.0000705756
 Zr        -0.0017976528       -0.0006902906        0.0010249643
 Zr        -0.0049839102       -0.0020735186       -0.0032461791
 Zr         0.0014926146       -0.0053785948        0.0027423779
 Zr         0.0032859267       -0.0051772569       -0.0070719777
 Zr         0.0027958665       -0.0049058086       -0.0003734253
 Zr         0.0005362894       -0.0032521975       -0.0036611659
 Zr        -0.0002569533       -0.0048263481       -0.0043722602
 Zr        -0.0028315233        0.0010154905        0.0021488542
 Zr         0.0031941727       -0.0011946124        0.0001030378
 Zr         0.0046986308        0.0030429318       -0.0010723805
 Zr        -0.0010540505        0.0012915122        0.0005611951
 Zr        -0.0016975842       -0.0036706845       -0.0031403247
 Zr         0.0002033293        0.0024350614        0.0031750528
 Zr         0.0033081018        0.0027043965       -0.0011892179
 Zr        -0.0028689808       -0.0030728742        0.0024142644
 Zr         0.0014345413        0.0000573172        0.0042157227
  O        -0.0092573851        0.0119310350       -0.0013930227
  O         0.0093094447       -0.0076582197       -0.0082525036
  O        -0.0008847246       -0.0008521527        0.0025520299
  O         0.0010215485       -0.0115627782        0.0018829163
  O        -0.0076082363       -0.0064956797       -0.0053407339
  O         0.0023981464        0.0067302532       -0.0017226650
  O         0.0104130250        0.0057737022       -0.0100995041
  O        -0.0007472820       -0.0081058884        0.0047899128
  O        -0.0019637974       -0.0028627489       -0.0018938654
  O        -0.0028706672        0.0070856556        0.0008928687
  O         0.0081498458       -0.0021845471       -0.0002851754
  O        -0.0062603033       -0.0133402023        0.0005734702
  O         0.0010698055       -0.0049254601       -0.0103619575
  O         0.0106859165       -0.0071131895       -0.0096692954
  O         0.0033834091        0.0026424330        0.0038640724
  O        -0.0031592537       -0.0093909500       -0.0095029932
  O        -0.0048315517       -0.0145198790       -0.0073667044
  O        -0.0103852807       -0.0048270555       -0.0077314734
  O        -0.0105528661       -0.0138152794        0.0019958703
  O        -0.0093345337        0.0010291127       -0.0038052950
  O         0.0127227618       -0.0071022278       -0.0004968920
  O         0.0072062451       -0.0007467238        0.0047653808
  O        -0.0065473541        0.0027331364       -0.0019452802
  O        -0.0003079419       -0.0007994507       -0.0065108642
  O        -0.0004200539       -0.0006710227        0.0151544380
  O        -0.0016207921       -0.0093791069       -0.0054304436
  O        -0.0054227486       -0.0006707000        0.0076795111
  O        -0.0071494581       -0.0116697466       -0.0076962944
  O        -0.0048379686       -0.0048517529       -0.0050007297
  O        -0.0043205656       -0.0043078109       -0.0028013226
  O         0.0015512998       -0.0009099792        0.0080869083
  O         0.0105686187        0.0062941944       -0.0121572976
  O        -0.0130540945        0.0060172616       -0.0059797362
  O         0.0040743880        0.0077381996       -0.0161396373
  O        -0.0037207592        0.0035085490        0.0036231959
  O         0.0130117757       -0.0065495530        0.0038896273
  O        -0.0018705518       -0.0101061349       -0.0009616120
  O         0.0024698017       -0.0046363112       -0.0012421250
  O        -0.0131528464       -0.0142769693       -0.0065122966
  O        -0.0064249639       -0.0058690958        0.0129584789
  O         0.0013223582        0.0028636482        0.0008799560
  O         0.0167430770       -0.0028554991       -0.0053388142
  O         0.0050285181        0.0060315076        0.0064602580
  O         0.0055978719       -0.0031954091        0.0009787220
  O         0.0072440355       -0.0145059709       -0.0070491409
  O         0.0047304476        0.0122858358       -0.0030601165
  O        -0.0054256511       -0.0032344967       -0.0039177069
  O         0.0040132246        0.0031951239       -0.0014034316
  O        -0.0059438654        0.0168717336       -0.0032120025
  O        -0.0051579020        0.0019342346       -0.0015201439
  O         0.0042752709       -0.0071600855        0.0081549373
  O        -0.0034526730       -0.0041522930        0.0023039710
  O         0.0032699074        0.0093668198       -0.0069564056
  O        -0.0158579683       -0.0086782397       -0.0022773339
  O        -0.0102389157        0.0073374097        0.0024560525
  O        -0.0062174092       -0.0096502275       -0.0042131838
  O        -0.0119218393       -0.0007628174       -0.0033438456
  O         0.0060161464       -0.0046117477       -0.0105136942
  O        -0.0061652344        0.0057095137        0.0051001808
  O         0.0014579648        0.0124864213        0.0001651096
  O         0.0024624045        0.0003709896       -0.0023608279
  O        -0.0020728187       -0.0068432923        0.0095107024
  O        -0.0056176346       -0.0037516619       -0.0085724245
  O        -0.0049714797       -0.0048407036        0.0031051146
  O        -0.0060369875        0.0088346580        0.0089240227
  O        -0.0008444905       -0.0007321616        0.0091950706
  O        -0.0011620704        0.0018216493        0.0005521565
  O        -0.0089991154        0.0040862249        0.0026605121
  O         0.0047125634       -0.0118834031       -0.0082355890
  O         0.0056644617        0.0058899449        0.0019881555
  O         0.0069752108       -0.0077701327        0.0035869284
  O        -0.0068173243        0.0013552445        0.0038781767
  O         0.0017602339        0.0089795599        0.0023030595
  O         0.0177558097       -0.0054060781        0.0089976484
  O         0.0018520431        0.0113470193        0.0009580745
  O        -0.0161100778        0.0014593356       -0.0005106187
  O         0.0002350510        0.0058889737        0.0040734591
  O         0.0057734948        0.0110990692        0.0099159749
  O        -0.0041995231        0.0011700383        0.0099960402
  O         0.0007411446        0.0168540624        0.0087279660
  O        -0.0110756695       -0.0037907140        0.0117993380
  O        -0.0070514961        0.0014419641        0.0046432855
  O        -0.0048227025       -0.0108695267       -0.0015156532
  O        -0.0061210571       -0.0021183270       -0.0086180020
  O         0.0036842572        0.0071474111       -0.0122173050
  O        -0.0009987768        0.0072635749       -0.0012737071
  O         0.0064025883        0.0044005920        0.0004397639
  O         0.0033773689       -0.0008493679       -0.0040416860
  O         0.0056355014        0.0024673584        0.0030170778
  O        -0.0023717841       -0.0105250340       -0.0057252163
  O        -0.0040696648        0.0001415912       -0.0130293121
  O         0.0057536270        0.0043958881       -0.0026356137
  O        -0.0009867436       -0.0063051814        0.0141277520
  O        -0.0041584976        0.0015325328        0.0009822983
  O        -0.0024226317       -0.0074018846       -0.0000624961
  O         0.0029332906       -0.0019161778        0.0057976042
 Li         0.0277171454        0.0041140220        0.0083619880
 Li        -0.0108752614        0.0112529832        0.0020964143
 Li         0.0014893719       -0.0063081350        0.0088901244
 Li         0.0061441915        0.0085324188       -0.0009091687
 Li        -0.0030260841        0.0144558653        0.0086944118
 Li         0.0003774810        0.0124666497        0.0116859317
 Li        -0.0163662256       -0.0140645749       -0.0002263502
 Li        -0.0115145300        0.0034093817        0.0175443315
 Li         0.0098421720       -0.0064545622       -0.0116267222
 Li        -0.0143789977        0.0042098904        0.0073742551
 Li         0.0055975826        0.0022558337       -0.0170010494
 Li         0.0016419063       -0.0042304058       -0.0070760852
 Li         0.0082193014       -0.0152782714        0.0061275240
 Li        -0.0019785914        0.0106075465        0.0052157678
 Li         0.0007597053       -0.0127517435        0.0192705235
 Li         0.0048092936       -0.0111351572       -0.0050784213
 Li         0.0158636377        0.0000037721       -0.0104987558
 Li         0.0132400266       -0.0087862266        0.0026641612
 Li        -0.0097700437        0.0003595482        0.0161069506
 Li        -0.0009663513       -0.0036109819       -0.0130808109
 Li        -0.0035558343        0.0140813798        0.0096702608
 Li         0.0164542823       -0.0036825947       -0.0053152345
 Li        -0.0019401005        0.0037555095        0.0010861740
 Li         0.0030419146       -0.0193671529        0.0091007258
 Li        -0.0039470466       -0.0099880123       -0.0146654253
 Li         0.0198663767       -0.0004379886        0.0124160912
 Li        -0.0102930401        0.0289303288       -0.0060128572
 Li        -0.0118471337        0.0173450671       -0.0110968099
 Li         0.0039218091        0.0083588391        0.0135570143
 Li        -0.0060710610       -0.0113366529       -0.0072534293
 Li        -0.0085239864        0.0200762456       -0.0098946923
 Li         0.0223273731       -0.0002113851       -0.0069308340
 Li         0.0357043402        0.0306021851        0.0114519653
 Li         0.0065332802        0.0097053742       -0.0026717101
 Li         0.0018651688        0.0061832616        0.0167356599
 Li        -0.0003109726       -0.0157874325       -0.0064179509
 Li         0.0021727091       -0.0015927339        0.0079732568
 Li         0.0376917503       -0.0019640971       -0.0067547891
 Li         0.0026285939        0.0035471388       -0.0157750927
 Li        -0.0056581840        0.0045604465        0.0028342220
 Li        -0.0010621401       -0.0083792489       -0.0040747172
 Li         0.0103360531       -0.0132143827       -0.0062955904
 Li        -0.0038497386        0.0017678515       -0.0025509473
 Li         0.0060995549       -0.0110723896        0.0066821683
 Li         0.0149448889       -0.0082541233       -0.0025418204
 Li         0.0114404696        0.0002841590       -0.0076209843
 Li         0.0125708530       -0.0110910511       -0.0013005289
 Li        -0.0034654508        0.0073203879        0.0201440707
 Li         0.0106071865       -0.0084588538       -0.0146199451
 Li         0.0171719758       -0.0011675693        0.0106572454
 Li         0.0151174174       -0.0037635733        0.0192403533
 Li        -0.0023324632        0.0001204328        0.0010018118
 Li        -0.0074173590        0.0002656513       -0.0032550239
 Li        -0.0034374690        0.0106883282        0.0129501341
 Li         0.0009574417        0.0132708431        0.0046771695
 Li         0.0059745533        0.0058857860       -0.0011217488
 La         0.0007648816       -0.0017332273       -0.0037720971
 La         0.0027816760        0.0025568572        0.0027785539
 La        -0.0024064549        0.0000617323       -0.0040216981
 La         0.0002866575       -0.0047779764        0.0004718263
 La        -0.0003602973       -0.0010713972       -0.0017462780
 La         0.0012233048        0.0028098814       -0.0052209496
 La        -0.0030733910       -0.0007969150       -0.0007978054
 La        -0.0000564663        0.0035384051       -0.0016465120
 La         0.0005201006       -0.0014288918        0.0011325658
 La         0.0028688074       -0.0045216027       -0.0006195186
 La         0.0033655897       -0.0010618084        0.0024361611
 La        -0.0047326219        0.0034360267        0.0031754509
 La        -0.0000066711        0.0017135249       -0.0001573456
 La        -0.0005172553        0.0020620256        0.0016806418
 La         0.0011103505        0.0014773576        0.0071654025
 La        -0.0006797965       -0.0005103557       -0.0000351101
 La        -0.0005109301       -0.0001600110       -0.0017064244
 La        -0.0007794166        0.0048344503       -0.0040791155
 La        -0.0014062402       -0.0006720528       -0.0004689454
 La         0.0020574989       -0.0002395718       -0.0041871027
 La        -0.0020064155        0.0016672622       -0.0012663729
 La         0.0003678019       -0.0009729881       -0.0003465568
 La        -0.0000601835       -0.0027629892        0.0018349465
 La         0.0050684932        0.0009810788       -0.0043270226
 Zr        -0.0022709058       -0.0020699938        0.0003881275
 Zr         0.0012428283       -0.0006739933        0.0005684795
 Zr        -0.0003550066        0.0023443301       -0.0052441641
 Zr        -0.0040045588       -0.0005338022       -0.0027104490
 Zr         0.0001216324        0.0009023976       -0.0016217806
 Zr        -0.0004534007       -0.0038941604        0.0052646901
 Zr        -0.0013309126        0.0014991786       -0.0034664070
 Zr         0.0019303593       -0.0024323485       -0.0001503831
 Zr         0.0029098673        0.0027919002       -0.0021747820
 Zr        -0.0028829574       -0.0049077803       -0.0020364215
 Zr         0.0044411056       -0.0020267341       -0.0050956273
 Zr        -0.0013883165       -0.0006363578       -0.0013578233
 Zr        -0.0008146776        0.0001788975        0.0005368153
 Zr         0.0013290529       -0.0032357313       -0.0009136473
 Zr        -0.0064286142       -0.0008034618        0.0015855601
 Zr         0.0015138203       -0.0009943527        0.0030866395
  O        -0.0067150352        0.0044217805        0.0061865696
  O         0.0043864773       -0.0245904871       -0.0043249069
  O        -0.0025151103        0.0085940431       -0.0069501673
  O        -0.0038536483        0.0024916554       -0.0055305363
  O        -0.0151471936       -0.0009483692       -0.0051375408
  O        -0.0021303822        0.0038944389        0.0050552266
  O         0.0066967604       -0.0063022578        0.0104011065
  O         0.0060423140       -0.0028714079       -0.0067863910
  O        -0.0003743038        0.0005920818        0.0034598417
  O         0.0030960801       -0.0008745344       -0.0152956366
  O        -0.0042874106        0.0132490950       -0.0070557933
  O        -0.0014191329       -0.0006611968        0.0027403991
  O        -0.0050222441        0.0016524707        0.0045746378
  O        -0.0053601293        0.0020648571        0.0244858441
  O         0.0045467339        0.0057749472       -0.0009264786
  O        -0.0002152718        0.0140867717        0.0076714113
  O         0.0057700739        0.0126249778       -0.0010971304
  O         0.0072863052        0.0001965816        0.0027019285
  O        -0.0071119244       -0.0136481987        0.0038546203
  O         0.0065184838        0.0077301210       -0.0066873689
  O         0.0032178087       -0.0024545039        0.0122227991
  O        -0.0035506564       -0.0086356080       -0.0020406990
  O        -0.0112372503        0.0098670054       -0.0037175173
  O         0.0030927515       -0.0104963270       -0.0084033892
  O         0.0041992810        0.0068038030        0.0027563796
  O         0.0090870528        0.0053187253       -0.0055164032
  O         0.0098960715       -0.0065969134       -0.0030906208
  O        -0.0040521409        0.0014360526       -0.0030042192
  O        -0.0125279783        0.0042869492        0.0006099930
  O         0.0071204682        0.0047230622        0.0095380945
  O        -0.0098380460        0.0027781978       -0.0019810786
  O         0.0077539184       -0.0077289071       -0.0073509675
  O         0.0129414728        0.0104031435        0.0029622064
  O        -0.0060144539        0.0017738315        0.0035118418
  O         0.0078308987        0.0070802201        0.0090973943
  O         0.0112480658       -0.0095342086       -0.0103650976